#############################################
# Avant-garde Materials Simulation           
#############################################

data_g1927
_cell_length_a 13.6730805824
_cell_length_b 4.3699206272
_cell_length_c 7.2806943863
_cell_angle_alpha 90.0000000000
_cell_angle_beta 109.7828024371
_cell_angle_gamma 90.0000000000
_cell_volume 409.3494622510
_exptl_crystal_density_diffrn 1.0398470997
_total_energy -5686.9265798482
_electrostatic_energy 0.0000000000
_vdw_energy -51.2760071914
_bond_energy 0.0000000000
_angle_energy 0.0000000000
_stretch_bend_coupling_energy 0.0000000000
_torsion_energy 0.0000000000
_inversion_energy 0.0000000000
_last_operation minimize_crystal_energy
_last_operation_comment none
_symmetry_cell_setting monoclinic
_symmetry_space_group_name_H-M 'C 2'
_symmetry_Int_Tables_number 5
loop_
_symmetry_equiv_pos_site_id
_symmetry_equiv_pos_as_xyz
1 x,y,z
2 -x,y,-z
3 x+1/2,y+1/2,z
4 -x+1/2,y+1/2,-z
loop_
_atom_site_label
_atom_site_type_symbol
_atom_site_fract_x
_atom_site_fract_y
_atom_site_fract_z
_atom_site_fftype
_atom_site_charge
_atom_site_hybridization
C1_0 C -0.3681995168 0.5341576905 0.8914653037 C4 -0.2673638110 SP3
H1_0 H -0.3572604561 0.3031465311 0.8427432779 H 0.1423097670 UNKNOWN
H2_0 H -0.3131860274 0.6901547265 0.8581066422 H 0.1423097670 UNKNOWN
H3_0 H -0.4481541385 0.6105161204 0.8128638053 H 0.1423097670 UNKNOWN
O1_0 O -0.3483028558 0.5207936213 1.0979085435 O2 -0.5855322470 SP3
H4_0 H -0.3716336010 0.7182928626 1.1418697520 H 0.4259667570 UNKNOWN
H4_1 H -0.3908636829 0.2160665339 1.1698222201 H 0.4259667570 UNKNOWN
O1_1 O -0.4112158106 0.0233081255 1.2250713948 O2 -0.5855322470 SP3
C1_1 C -0.3772622483 0.0532745967 1.4323405003 C4 -0.2673638110 SP3
H1_1 H -0.2922201022 0.0747762135 1.4978767030 H 0.1423097670 UNKNOWN
H2_1 H -0.4015292268 -0.1520398388 1.4925757869 H 0.1423097670 UNKNOWN
H3_1 H -0.4134198503 0.2533577396 1.4758506596 H 0.1423097670 UNKNOWN
#END
