#############################################
# Avant-garde Materials Simulation           
#############################################

data_g1988
_cell_length_a 4.1307193045
_cell_length_b 13.4460501601
_cell_length_c 4.2790992211
_cell_angle_alpha 90.0000000000
_cell_angle_beta 61.5025422605
_cell_angle_gamma 90.0000000000
_cell_volume 208.8727262932
_exptl_crystal_density_diffrn 1.0189478987
_total_energy -2842.7341827105
_electrostatic_energy 0.0000000000
_vdw_energy -25.1913103512
_bond_energy 0.0000000000
_angle_energy 0.0000000000
_stretch_bend_coupling_energy 0.0000000000
_torsion_energy 0.0000000000
_inversion_energy 0.0000000000
_last_operation minimize_crystal_energy
_last_operation_comment none
_symmetry_cell_setting monoclinic
_symmetry_space_group_name_H-M 'P c'
_symmetry_Int_Tables_number 7
loop_
_symmetry_equiv_pos_site_id
_symmetry_equiv_pos_as_xyz
1 x,y,z
2 x,-y,z+1/2
loop_
_atom_site_label
_atom_site_type_symbol
_atom_site_fract_x
_atom_site_fract_y
_atom_site_fract_z
_atom_site_fftype
_atom_site_charge
_atom_site_hybridization
C1_0 C -0.2348278748 0.6133881546 0.3988987788 C4 -0.2673638110 SP3
H1_0 H -0.3101914938 0.6356251752 0.1944359992 H 0.1423097670 UNKNOWN
H2_0 H -0.4807916852 0.5829243267 0.6283551173 H 0.1423097670 UNKNOWN
H3_0 H -0.0242921789 0.5548087107 0.2895180059 H 0.1423097670 UNKNOWN
O1_0 O -0.0841723522 0.6946301187 0.5037960716 O2 -0.5855322470 SP3
H4_0 H -0.2921239469 0.7367549699 0.6846589513 H 0.4259667570 UNKNOWN
H4_1 H 0.1938320868 0.2371590672 0.6757925154 H 0.4259667570 UNKNOWN
O1_1 O 0.3818081010 0.1954242917 0.4738296992 O2 -0.5855322470 SP3
C1_1 C 0.4891668787 0.1150862356 0.6247036608 C4 -0.2673638110 SP3
H1_1 H 0.4881393287 0.1378279467 0.8721716578 H 0.1423097670 UNKNOWN
H2_1 H 0.7693984452 0.0918145174 0.4319251273 H 0.1423097670 UNKNOWN
H3_1 H 0.3017208695 0.0511797943 0.6816103663 H 0.1423097670 UNKNOWN
#END
