#############################################
# Avant-garde Materials Simulation           
#############################################

data_g792
_cell_length_a 14.0235186597
_cell_length_b 4.3031560718
_cell_length_c 10.9239205738
_cell_angle_alpha 90.0000000000
_cell_angle_beta 136.9974019018
_cell_angle_gamma 90.0000000000
_cell_volume 449.6008008702
_exptl_crystal_density_diffrn 0.9467528756
_total_energy -5683.0456856581
_electrostatic_energy 0.0000000000
_vdw_energy -45.5369559699
_bond_energy 0.0000000000
_angle_energy 0.0000000000
_stretch_bend_coupling_energy 0.0000000000
_torsion_energy 0.0000000000
_inversion_energy 0.0000000000
_last_operation minimize_crystal_energy
_last_operation_comment none
_symmetry_cell_setting monoclinic
_symmetry_space_group_name_H-M 'C 2/c'
_symmetry_Int_Tables_number 15
loop_
_symmetry_equiv_pos_site_id
_symmetry_equiv_pos_as_xyz
1 x,y,z
2 -x,y,-z+1/2
3 -x,-y,-z
4 x,-y,z+1/2
5 x+1/2,y+1/2,z
6 -x+1/2,y+1/2,-z+1/2
7 -x+1/2,-y+1/2,-z
8 x+1/2,-y+1/2,z+1/2
loop_
_atom_site_label
_atom_site_type_symbol
_atom_site_fract_x
_atom_site_fract_y
_atom_site_fract_z
_atom_site_fftype
_atom_site_charge
_atom_site_hybridization
C1_0 C -0.3858317246 -0.1582314967 -0.5166701574 C4 -0.2673638110 SP3
H1_0 H -0.4747123683 -0.2482221361 -0.5468162511 H 0.1423097670 UNKNOWN
H2_0 H -0.3687224919 -0.3090001385 -0.5807008785 H 0.1423097670 UNKNOWN
H3_0 H -0.4127135747 0.0751929187 -0.5751166096 H 0.1423097670 UNKNOWN
O1_0 O -0.2614213782 -0.1336093839 -0.3273266159 O2 -0.5855322470 SP3
H4_0 H -0.2504887641 -0.3316589276 -0.2677340422 H 0.4259667570 UNKNOWN
#END
