#############################################
# Avant-garde Materials Simulation           
#############################################

data_g931
_cell_length_a 4.9541989600
_cell_length_b 6.5617725432
_cell_length_c 7.0675687791
_cell_angle_alpha 90.0000000000
_cell_angle_beta 68.8013106802
_cell_angle_gamma 90.0000000000
_cell_volume 214.2078016047
_exptl_crystal_density_diffrn 0.9935699071
_total_energy -2844.6782343134
_electrostatic_energy 0.0000000000
_vdw_energy -24.2024057441
_bond_energy 0.0000000000
_angle_energy 0.0000000000
_stretch_bend_coupling_energy 0.0000000000
_torsion_energy 0.0000000000
_inversion_energy 0.0000000000
_last_operation minimize_crystal_energy
_last_operation_comment none
_symmetry_cell_setting monoclinic
_symmetry_space_group_name_H-M 'P 2_1'
_symmetry_Int_Tables_number 4
loop_
_symmetry_equiv_pos_site_id
_symmetry_equiv_pos_as_xyz
1 x,y,z
2 -x,y+1/2,-z
loop_
_atom_site_label
_atom_site_type_symbol
_atom_site_fract_x
_atom_site_fract_y
_atom_site_fract_z
_atom_site_fftype
_atom_site_charge
_atom_site_hybridization
C1_0 C -0.8919051443 0.5209328867 -0.7166904606 C4 -0.2673638110 SP3
H1_0 H -0.8772425537 0.6870981447 -0.7354557641 H 0.1423097670 UNKNOWN
H2_0 H -0.6734116045 0.4553889090 -0.7872504766 H 0.1423097670 UNKNOWN
H3_0 H -0.9741639583 0.4860085984 -0.5533725997 H 0.1423097670 UNKNOWN
O1_0 O -1.0863108773 0.4480131708 -0.8110266803 O2 -0.5855322470 SP3
H4_0 H -1.0958836524 0.2939960808 -0.8007829114 H 0.4259667570 UNKNOWN
H4_1 H -0.9752470295 0.5079704472 -1.0490361836 H 0.4259667570 UNKNOWN
O1_1 O -0.8964418959 0.5488989655 -1.1971949723 O2 -0.5855322470 SP3
C1_1 C -0.6104183870 0.4644149694 -1.2871197301 C4 -0.2673638110 SP3
H1_1 H -0.5297235823 0.4985648566 -1.4500448394 H 0.1423097670 UNKNOWN
H2_1 H -0.6161995202 0.2978842584 -1.2673838593 H 0.1423097670 UNKNOWN
H3_1 H -0.4596564143 0.5302487063 -1.2209583127 H 0.1423097670 UNKNOWN
#END
