#############################################
# Avant-garde Materials Simulation           
#############################################

data_g945
_cell_length_a 4.3837919088
_cell_length_b 8.9003653091
_cell_length_c 5.3603474215
_cell_angle_alpha 90.0000000000
_cell_angle_beta 90.0979309048
_cell_angle_gamma 90.0000000000
_cell_volume 209.1462428973
_exptl_crystal_density_diffrn 1.0176153422
_total_energy -2844.8106116371
_electrostatic_energy 0.0000000000
_vdw_energy -25.0296998444
_bond_energy 0.0000000000
_angle_energy 0.0000000000
_stretch_bend_coupling_energy 0.0000000000
_torsion_energy 0.0000000000
_inversion_energy 0.0000000000
_last_operation minimize_crystal_energy
_last_operation_comment none
_symmetry_cell_setting monoclinic
_symmetry_space_group_name_H-M 'P 2_1'
_symmetry_Int_Tables_number 4
loop_
_symmetry_equiv_pos_site_id
_symmetry_equiv_pos_as_xyz
1 x,y,z
2 -x,y+1/2,-z
loop_
_atom_site_label
_atom_site_type_symbol
_atom_site_fract_x
_atom_site_fract_y
_atom_site_fract_z
_atom_site_fftype
_atom_site_charge
_atom_site_hybridization
C1_0 C -0.5054117398 0.6361277335 0.3873158668 C4 -0.2673638110 SP3
H1_0 H -0.7095796407 0.6741035729 0.4870811538 H 0.1423097670 UNKNOWN
H2_0 H -0.4988030769 0.6915448033 0.2034711780 H 0.1423097670 UNKNOWN
H3_0 H -0.3040786078 0.6710964518 0.4955735757 H 0.1423097670 UNKNOWN
O1_0 O -0.5197604505 0.4757641997 0.3645352498 O2 -0.5855322470 SP3
H4_0 H -0.3263698827 0.4404781413 0.2796609514 H 0.4259667570 UNKNOWN
H4_1 H -0.8285446540 0.4193313985 0.2235140078 H 0.4259667570 UNKNOWN
O1_1 O -1.0218950544 0.3917067005 0.1317494584 O2 -0.5855322470 SP3
C1_1 C -1.0137551475 0.4657659886 -0.1069250184 C4 -0.2673638110 SP3
H1_1 H -1.2269814873 0.4398088472 -0.2052463955 H 0.1423097670 UNKNOWN
H2_1 H -0.8223336504 0.4246834896 -0.2205296718 H 0.1423097670 UNKNOWN
H3_1 H -0.9942890719 0.5886931452 -0.0867233836 H 0.1423097670 UNKNOWN
#END
