#############################################
# Avant-garde Materials Simulation           
#############################################

data_g939
_cell_length_a 4.3616890123
_cell_length_b 6.5244415105
_cell_length_c 7.4357220416
_cell_angle_alpha 88.8448132033
_cell_angle_beta 89.6440965590
_cell_angle_gamma 89.4378043195
_cell_volume 211.5456725711
_exptl_crystal_density_diffrn 1.0060731707
_total_energy -2842.9890270352
_electrostatic_energy 0.0000000000
_vdw_energy -24.8244081237
_bond_energy 0.0000000000
_angle_energy 0.0000000000
_stretch_bend_coupling_energy 0.0000000000
_torsion_energy 0.0000000000
_inversion_energy 0.0000000000
_last_operation minimize_crystal_energy
_last_operation_comment none
_symmetry_cell_setting triclinic
_symmetry_space_group_name_H-M 'P -1'
_symmetry_Int_Tables_number 2
loop_
_symmetry_equiv_pos_site_id
_symmetry_equiv_pos_as_xyz
1 x,y,z
2 -x,-y,-z
loop_
_atom_site_label
_atom_site_type_symbol
_atom_site_fract_x
_atom_site_fract_y
_atom_site_fract_z
_atom_site_fftype
_atom_site_charge
_atom_site_hybridization
C1_0 C 0.4927003018 0.2286642996 0.6284900595 C4 -0.2673638110 SP3
H1_0 H 0.7156160804 0.2118412321 0.5604113826 H 0.1423097670 UNKNOWN
H2_0 H 0.3181195563 0.2618124193 0.5255348400 H 0.1423097670 UNKNOWN
H3_0 H 0.4362540362 0.0833881411 0.6987447269 H 0.1423097670 UNKNOWN
O1_0 O 0.5098432977 0.3921427000 0.7542699563 O2 -0.5855322470 SP3
H4_0 H 0.3124014949 0.4748823702 0.7483954721 H 0.4259667570 UNKNOWN
H4_1 H 0.8129651651 0.5278611957 0.7409071308 H 0.4259667570 UNKNOWN
O1_1 O 1.0068045372 0.6118335034 0.7377174428 O2 -0.5855322470 SP3
C1_1 C 0.9854078848 0.7623415713 0.8757368620 C4 -0.2673638110 SP3
H1_1 H 0.9411702344 0.9153748357 0.8154857503 H 0.1423097670 UNKNOWN
H2_1 H 1.2022490542 0.7649604112 0.9502583062 H 0.1423097670 UNKNOWN
H3_1 H 0.8002834186 0.7254280705 0.9718166971 H 0.1423097670 UNKNOWN
#END
