#############################################
# Avant-garde Materials Simulation           
#############################################

data_g966
_cell_length_a 4.9371888411
_cell_length_b 8.6110726018
_cell_length_c 8.1767637462
_cell_angle_alpha 135.1207789835
_cell_angle_beta 62.1561312823
_cell_angle_gamma 120.5708552246
_cell_volume 207.9170700083
_exptl_crystal_density_diffrn 1.0236313235
_total_energy -2842.7344226269
_electrostatic_energy 0.0000000000
_vdw_energy -25.1102654933
_bond_energy 0.0000000000
_angle_energy 0.0000000000
_stretch_bend_coupling_energy 0.0000000000
_torsion_energy 0.0000000000
_inversion_energy 0.0000000000
_last_operation minimize_crystal_energy
_last_operation_comment none
_symmetry_cell_setting triclinic
_symmetry_space_group_name_H-M 'P -1'
_symmetry_Int_Tables_number 2
loop_
_symmetry_equiv_pos_site_id
_symmetry_equiv_pos_as_xyz
1 x,y,z
2 -x,-y,-z
loop_
_atom_site_label
_atom_site_type_symbol
_atom_site_fract_x
_atom_site_fract_y
_atom_site_fract_z
_atom_site_fftype
_atom_site_charge
_atom_site_hybridization
C1_0 C 0.4474706143 0.1238422412 0.3931565064 C4 -0.2673638110 SP3
H1_0 H 0.2860413640 0.0192625175 0.4526130891 H 0.1423097670 UNKNOWN
H2_0 H 0.3442292155 0.0786624913 0.2659083667 H 0.1423097670 UNKNOWN
H3_0 H 0.4696541013 0.3056037011 0.5455186569 H 0.1423097670 UNKNOWN
O1_0 O 0.7612710302 0.0938046606 0.2952866094 O2 -0.5855322470 SP3
H4_0 H 0.7517228591 -0.0683745806 0.1454813168 H 0.4259667570 UNKNOWN
O1_1 O 0.2078138873 0.3111465833 0.1214049376 O2 -0.5855322470 SP3
C1_1 C 0.0727852779 0.4366403208 0.1380157282 C4 -0.2673638110 SP3
H4_1 H 0.0411865782 0.2464232686 0.2061520780 H 0.4259667570 UNKNOWN
H1_1 H 0.2308746997 0.4750569796 0.0152695269 H 0.1423097670 UNKNOWN
H2_1 H 0.0576948795 0.5992039433 0.3173908342 H 0.1423097670 UNKNOWN
H3_1 H -0.1672134144 0.3362002257 0.0907467914 H 0.1423097670 UNKNOWN
#END
