#############################################
# Avant-garde Materials Simulation           
#############################################

data_g160
_cell_length_a 14.8416528226
_cell_length_b 7.3574355348
_cell_length_c 7.2646861811
_cell_angle_alpha 90.0000000000
_cell_angle_beta 90.0000000000
_cell_angle_gamma 90.0000000000
_cell_volume 793.2783327046
_exptl_crystal_density_diffrn 1.0731689838
_total_energy -11351.1129377127
_electrostatic_energy 0.0000000000
_vdw_energy -105.5585611536
_bond_energy 0.0000000000
_angle_energy 0.0000000000
_stretch_bend_coupling_energy 0.0000000000
_torsion_energy 0.0000000000
_inversion_energy 0.0000000000
_last_operation minimize_crystal_energy
_last_operation_comment none
_symmetry_cell_setting orthorhombic
_symmetry_space_group_name_H-M 'F d d 2'
_symmetry_Int_Tables_number 43
loop_
_symmetry_equiv_pos_site_id
_symmetry_equiv_pos_as_xyz
1 x,y,z
2 -x,-y,z
3 x+1/4,-y+1/4,z+1/4
4 -x+1/4,y+1/4,z+1/4
5 x,y+1/2,z+1/2
6 -x,-y+1/2,z+1/2
7 x+1/4,-y+3/4,z+3/4
8 -x+1/4,y+3/4,z+3/4
9 x+1/2,y,z+1/2
10 -x+1/2,-y,z+1/2
11 x+3/4,-y+1/4,z+3/4
12 -x+3/4,y+1/4,z+3/4
13 x+1/2,y+1/2,z
14 -x+1/2,-y+1/2,z
15 x+3/4,-y+3/4,z+1/4
16 -x+3/4,y+3/4,z+1/4
loop_
_atom_site_label
_atom_site_type_symbol
_atom_site_fract_x
_atom_site_fract_y
_atom_site_fract_z
_atom_site_fftype
_atom_site_charge
_atom_site_hybridization
C1_0 C 0.2564534237 -0.0153897286 -0.5346782334 C4 -0.2673638110 SP3
H1_0 H 0.2698539038 -0.0844703905 -0.4031882210 H 0.1423097670 UNKNOWN
H2_0 H 0.2895918256 0.1182328777 -0.5330193142 H 0.1423097670 UNKNOWN
H3_0 H 0.2866878315 -0.0954312936 -0.6457432102 H 0.1423097670 UNKNOWN
O1_0 O 0.1617147279 0.0005453511 -0.5710729698 O2 -0.5855322470 SP3
H4_0 H 0.1356116004 0.0870872826 -0.4810989181 H 0.4259667570 UNKNOWN
#END
