#############################################
# Avant-garde Materials Simulation           
#############################################

data_g107
_cell_length_a 8.0240287133
_cell_length_b 8.0240287133
_cell_length_c 7.5306436012
_cell_angle_alpha 90.0000000000
_cell_angle_beta 90.0000000000
_cell_angle_gamma 90.0000000000
_cell_volume 484.8607653342
_exptl_crystal_density_diffrn 0.8779032694
_total_energy -5673.6470266076
_electrostatic_energy 0.0000000000
_vdw_energy -43.1117746481
_bond_energy 0.0000000000
_angle_energy 0.0000000000
_stretch_bend_coupling_energy 0.0000000000
_torsion_energy 0.0000000000
_inversion_energy 0.0000000000
_last_operation minimize_crystal_energy
_last_operation_comment none
_symmetry_cell_setting tetragonal
_symmetry_space_group_name_H-M 'I 4'
_symmetry_Int_Tables_number 79
loop_
_symmetry_equiv_pos_site_id
_symmetry_equiv_pos_as_xyz
1 x,y,z
2 -x,-y,z
3 -y,x,z
4 y,-x,z
5 x+1/2,y+1/2,z+1/2
6 -x+1/2,-y+1/2,z+1/2
7 -y+1/2,x+1/2,z+1/2
8 y+1/2,-x+1/2,z+1/2
loop_
_atom_site_label
_atom_site_type_symbol
_atom_site_fract_x
_atom_site_fract_y
_atom_site_fract_z
_atom_site_fftype
_atom_site_charge
_atom_site_hybridization
C1_0 C -0.3439750151 0.1761428109 -0.0443874761 C4 -0.2673638110 SP3
H1_0 H -0.3589235410 0.0474044022 -0.0929183117 H 0.1423097670 UNKNOWN
H2_0 H -0.4184109991 0.1911918949 0.0774834475 H 0.1423097670 UNKNOWN
H3_0 H -0.2128074068 0.1963981404 -0.0096837701 H 0.1423097670 UNKNOWN
O1_0 O -0.3908725781 0.2939538967 -0.1783826174 O2 -0.5855322470 SP3
H4_0 H -0.5143384652 0.3150669167 -0.1732293195 H 0.4259667570 UNKNOWN
#END
