#############################################
# Avant-garde Materials Simulation           
#############################################

data_g269
_cell_length_a 10.6844454440
_cell_length_b 10.6844454440
_cell_length_c 4.2675324905
_cell_angle_alpha 90.0000000000
_cell_angle_beta 90.0000000000
_cell_angle_gamma 90.0000000000
_cell_volume 487.1703044748
_exptl_crystal_density_diffrn 0.8737413738
_total_energy -5678.0972975963
_electrostatic_energy 0.0000000000
_vdw_energy -43.3553484441
_bond_energy 0.0000000000
_angle_energy 0.0000000000
_stretch_bend_coupling_energy 0.0000000000
_torsion_energy 0.0000000000
_inversion_energy 0.0000000000
_last_operation minimize_crystal_energy
_last_operation_comment none
_symmetry_cell_setting tetragonal
_symmetry_space_group_name_H-M 'I 4_1'
_symmetry_Int_Tables_number 80
loop_
_symmetry_equiv_pos_site_id
_symmetry_equiv_pos_as_xyz
1 x,y,z
2 -x+1/2,-y+1/2,z+1/2
3 -y,x+1/2,z+1/4
4 y+1/2,-x,z+3/4
5 x+1/2,y+1/2,z+1/2
6 -x,-y,z
7 -y+1/2,x,z+3/4
8 y,-x+1/2,z+1/4
loop_
_atom_site_label
_atom_site_type_symbol
_atom_site_fract_x
_atom_site_fract_y
_atom_site_fract_z
_atom_site_fftype
_atom_site_charge
_atom_site_hybridization
C1_0 C -0.8229935768 -0.0074149605 -0.2155403859 C4 -0.2673638110 SP3
H1_0 H -0.8879349989 0.0509388025 -0.0799396981 H 0.1423097670 UNKNOWN
H2_0 H -0.8755691567 -0.0571720204 -0.3991657044 H 0.1423097670 UNKNOWN
H3_0 H -0.7537499865 0.0538906907 -0.3291386223 H 0.1423097670 UNKNOWN
O1_0 O -0.7643165651 -0.0921854984 -0.0008693835 O2 -0.5855322470 SP3
H4_0 H -0.6972059650 -0.1423546738 -0.1115197094 H 0.4259667570 UNKNOWN
#END
