#############################################
# Avant-garde Materials Simulation           
#############################################

data_g133
_cell_length_a 13.0010874922
_cell_length_b 16.4063616943
_cell_length_c 4.3540782782
_cell_angle_alpha 90.0000000000
_cell_angle_beta 90.0000000000
_cell_angle_gamma 90.0000000000
_cell_volume 928.7272645643
_exptl_crystal_density_diffrn 0.9166541510
_total_energy -11361.9001988379
_electrostatic_energy 0.0000000000
_vdw_energy -89.5785755075
_bond_energy 0.0000000000
_angle_energy 0.0000000000
_stretch_bend_coupling_energy 0.0000000000
_torsion_energy 0.0000000000
_inversion_energy 0.0000000000
_last_operation minimize_crystal_energy
_last_operation_comment none
_symmetry_cell_setting orthorhombic
_symmetry_space_group_name_H-M 'F d d 2'
_symmetry_Int_Tables_number 43
loop_
_symmetry_equiv_pos_site_id
_symmetry_equiv_pos_as_xyz
1 x,y,z
2 -x,-y,z
3 x+1/4,-y+1/4,z+1/4
4 -x+1/4,y+1/4,z+1/4
5 x,y+1/2,z+1/2
6 -x,-y+1/2,z+1/2
7 x+1/4,-y+3/4,z+3/4
8 -x+1/4,y+3/4,z+3/4
9 x+1/2,y,z+1/2
10 -x+1/2,-y,z+1/2
11 x+3/4,-y+1/4,z+3/4
12 -x+3/4,y+1/4,z+3/4
13 x+1/2,y+1/2,z
14 -x+1/2,-y+1/2,z
15 x+3/4,-y+3/4,z+1/4
16 -x+3/4,y+3/4,z+1/4
loop_
_atom_site_label
_atom_site_type_symbol
_atom_site_fract_x
_atom_site_fract_y
_atom_site_fract_z
_atom_site_fftype
_atom_site_charge
_atom_site_hybridization
C1_0 C -0.3767516641 0.1764118059 -0.9629078280 C4 -0.2673638110 SP3
H1_0 H -0.3080147747 0.1954498825 -0.8330973414 H 0.1423097670 UNKNOWN
H2_0 H -0.3521689290 0.1538305532 -1.1883862565 H 0.1423097670 UNKNOWN
H3_0 H -0.4137388418 0.1256182167 -0.8394818753 H 0.1423097670 UNKNOWN
O1_0 O -0.4458340759 0.2432560909 -1.0064895853 O2 -0.5855322470 SP3
H4_0 H -0.4870102457 0.2511960184 -0.8113756044 H 0.4259667570 UNKNOWN
#END
