#############################################
# Avant-garde Materials Simulation           
#############################################

data_g924
_cell_length_a 4.9441378229
_cell_length_b 7.0981170878
_cell_length_c 6.5091022967
_cell_angle_alpha 92.1452028180
_cell_angle_beta 94.2328071590
_cell_angle_gamma 69.8355380084
_cell_volume 213.8272552704
_exptl_crystal_density_diffrn 0.9953381540
_total_energy -2842.8273840539
_electrostatic_energy 0.0000000000
_vdw_energy -24.2727533800
_bond_energy 0.0000000000
_angle_energy 0.0000000000
_stretch_bend_coupling_energy 0.0000000000
_torsion_energy 0.0000000000
_inversion_energy 0.0000000000
_last_operation minimize_crystal_energy
_last_operation_comment none
_symmetry_cell_setting triclinic
_symmetry_space_group_name_H-M 'P -1'
_symmetry_Int_Tables_number 2
loop_
_symmetry_equiv_pos_site_id
_symmetry_equiv_pos_as_xyz
1 x,y,z
2 -x,-y,-z
loop_
_atom_site_label
_atom_site_type_symbol
_atom_site_fract_x
_atom_site_fract_y
_atom_site_fract_z
_atom_site_fftype
_atom_site_charge
_atom_site_hybridization
C1_0 C 0.8953546621 0.2202246495 0.2212800852 C4 -0.2673638110 SP3
H1_0 H 0.9810291255 0.0582433456 0.2495516316 H 0.1423097670 UNKNOWN
H2_0 H 1.0439684200 0.2892400331 0.2996674180 H 0.1423097670 UNKNOWN
H3_0 H 0.8846591572 0.2447784303 0.0545282757 H 0.1423097670 UNKNOWN
O1_0 O 0.6120438870 0.2985538572 0.2985607473 O2 -0.5855322470 SP3
H4_0 H 0.5355361775 0.4483924375 0.2798630359 H 0.4259667570 UNKNOWN
H4_1 H 0.6025201251 0.2841994626 0.5512936711 H 0.4259667570 UNKNOWN
O1_1 O 0.5883526701 0.3017715716 0.7049553501 O2 -0.5855322470 SP3
C1_1 C 0.3916982802 0.2094070611 0.7689773289 C4 -0.2673638110 SP3
H1_1 H 0.1715179684 0.2809771913 0.6986929223 H 0.1423097670 UNKNOWN
H2_1 H 0.3851765131 0.2270320139 0.9368775424 H 0.1423097670 UNKNOWN
H3_1 H 0.4656163945 0.0482530988 0.7297500932 H 0.1423097670 UNKNOWN
#END
