#############################################
# Avant-garde Materials Simulation           
#############################################

data_g27
_cell_length_a 8.1488218801
_cell_length_b 14.5961439733
_cell_length_c 4.4716743193
_cell_angle_alpha 90.0000000000
_cell_angle_beta 65.7764085799
_cell_angle_gamma 90.0000000000
_cell_volume 485.0368712158
_exptl_crystal_density_diffrn 0.8775845226
_total_energy -5673.2780226920
_electrostatic_energy 0.0000000000
_vdw_energy -42.5572897994
_bond_energy 0.0000000000
_angle_energy 0.0000000000
_stretch_bend_coupling_energy 0.0000000000
_torsion_energy 0.0000000000
_inversion_energy 0.0000000000
_last_operation minimize_crystal_energy
_last_operation_comment none
_symmetry_cell_setting monoclinic
_symmetry_space_group_name_H-M 'C 2/c'
_symmetry_Int_Tables_number 15
loop_
_symmetry_equiv_pos_site_id
_symmetry_equiv_pos_as_xyz
1 x,y,z
2 -x,y,-z+1/2
3 -x,-y,-z
4 x,-y,z+1/2
5 x+1/2,y+1/2,z
6 -x+1/2,y+1/2,-z+1/2
7 -x+1/2,-y+1/2,-z
8 x+1/2,-y+1/2,z+1/2
loop_
_atom_site_label
_atom_site_type_symbol
_atom_site_fract_x
_atom_site_fract_y
_atom_site_fract_z
_atom_site_fftype
_atom_site_charge
_atom_site_hybridization
C1_0 C -0.2716750362 -0.3698593168 -0.7178653688 C4 -0.2673638110 SP3
H1_0 H -0.2825896249 -0.3312451495 -0.9197137773 H 0.1423097670 UNKNOWN
H2_0 H -0.1991303201 -0.3272019713 -0.6077778072 H 0.1423097670 UNKNOWN
H3_0 H -0.4088484379 -0.3827480118 -0.5304839760 H 0.1423097670 UNKNOWN
O1_0 O -0.1767080794 -0.4522958694 -0.8484278134 O2 -0.5855322470 SP3
H4_0 H -0.1726467679 -0.4902884703 -0.6640293025 H 0.4259667570 UNKNOWN
#END
