#############################################
# Avant-garde Materials Simulation           
#############################################

data_g147
_cell_length_a 10.4012263877
_cell_length_b 10.4012263877
_cell_length_c 3.7776391692
_cell_angle_alpha 90.0000000000
_cell_angle_beta 90.0000000000
_cell_angle_gamma 90.0000000000
_cell_volume 408.6858215041
_exptl_crystal_density_diffrn 1.0415356459
_total_energy -5667.8317943936
_electrostatic_energy 0.0000000000
_vdw_energy -53.2191812246
_bond_energy 0.0000000000
_angle_energy 0.0000000000
_stretch_bend_coupling_energy 0.0000000000
_torsion_energy 0.0000000000
_inversion_energy 0.0000000000
_last_operation minimize_crystal_energy
_last_operation_comment none
_symmetry_cell_setting tetragonal
_symmetry_space_group_name_H-M 'I 4'
_symmetry_Int_Tables_number 79
loop_
_symmetry_equiv_pos_site_id
_symmetry_equiv_pos_as_xyz
1 x,y,z
2 -x,-y,z
3 -y,x,z
4 y,-x,z
5 x+1/2,y+1/2,z+1/2
6 -x+1/2,-y+1/2,z+1/2
7 -y+1/2,x+1/2,z+1/2
8 y+1/2,-x+1/2,z+1/2
loop_
_atom_site_label
_atom_site_type_symbol
_atom_site_fract_x
_atom_site_fract_y
_atom_site_fract_z
_atom_site_fftype
_atom_site_charge
_atom_site_hybridization
C1_0 C 0.7557585194 0.0836189158 1.0093929821 C4 -0.2673638110 SP3
H1_0 H 0.7720449412 0.1739595023 0.8643228042 H 0.1423097670 UNKNOWN
H2_0 H 0.7747427353 0.0017256909 0.8321548732 H 0.1423097670 UNKNOWN
H3_0 H 0.8234380885 0.0798330013 1.2321940860 H 0.1423097670 UNKNOWN
O1_0 O 0.6289848242 0.0778134199 1.1541539946 O2 -0.5855322470 SP3
H4_0 H 0.5659513021 0.0900582513 0.9607005569 H 0.4259667570 UNKNOWN
#END
