#############################################
# Avant-garde Materials Simulation           
#############################################

data_g814
_cell_length_a 7.3182940967
_cell_length_b 4.3334918540
_cell_length_c 6.6129481022
_cell_angle_alpha 90.0000000000
_cell_angle_beta 90.0733990747
_cell_angle_gamma 90.0000000000
_cell_volume 209.7213288497
_exptl_crystal_density_diffrn 1.0148248951
_total_energy -2843.4685982757
_electrostatic_energy 0.0000000000
_vdw_energy -25.0361613694
_bond_energy 0.0000000000
_angle_energy 0.0000000000
_stretch_bend_coupling_energy 0.0000000000
_torsion_energy 0.0000000000
_inversion_energy 0.0000000000
_last_operation minimize_crystal_energy
_last_operation_comment none
_symmetry_cell_setting monoclinic
_symmetry_space_group_name_H-M 'C 2'
_symmetry_Int_Tables_number 5
loop_
_symmetry_equiv_pos_site_id
_symmetry_equiv_pos_as_xyz
1 x,y,z
2 -x,y,-z
3 x+1/2,y+1/2,z
4 -x+1/2,y+1/2,-z
loop_
_atom_site_label
_atom_site_type_symbol
_atom_site_fract_x
_atom_site_fract_y
_atom_site_fract_z
_atom_site_fftype
_atom_site_charge
_atom_site_hybridization
C1_0 C -0.1250576706 0.4614869377 -0.7316723939 C4 -0.2673638110 SP3
H1_0 H -0.0681497542 0.6917710891 -0.7021197335 H 0.1423097670 UNKNOWN
H2_0 H -0.0126477983 0.3070168821 -0.7755838310 H 0.1423097670 UNKNOWN
H3_0 H -0.1884117116 0.3737413776 -0.5918216017 H 0.1423097670 UNKNOWN
O1_0 O -0.2586390016 0.4862466721 -0.8898253514 O2 -0.5855322470 SP3
H4_0 H -0.2579057971 0.2883489803 -0.9708376996 H 0.4259667570 UNKNOWN
#END
