#############################################
# Avant-garde Materials Simulation           
#############################################

data_g1481
_cell_length_a 9.7304104562
_cell_length_b 6.8639078714
_cell_length_c 6.8711306370
_cell_angle_alpha 90.0000000000
_cell_angle_beta 114.6289481736
_cell_angle_gamma 90.0000000000
_cell_volume 417.1641311741
_exptl_crystal_density_diffrn 1.0203678104
_total_energy -5687.8850800809
_electrostatic_energy 0.0000000000
_vdw_energy -49.9929396184
_bond_energy 0.0000000000
_angle_energy 0.0000000000
_stretch_bend_coupling_energy 0.0000000000
_torsion_energy 0.0000000000
_inversion_energy 0.0000000000
_last_operation minimize_crystal_energy
_last_operation_comment none
_symmetry_cell_setting monoclinic
_symmetry_space_group_name_H-M 'C c'
_symmetry_Int_Tables_number 9
loop_
_symmetry_equiv_pos_site_id
_symmetry_equiv_pos_as_xyz
1 x,y,z
2 x,-y,z+1/2
3 x+1/2,y+1/2,z
4 x+1/2,-y+1/2,z+1/2
loop_
_atom_site_label
_atom_site_type_symbol
_atom_site_fract_x
_atom_site_fract_y
_atom_site_fract_z
_atom_site_fftype
_atom_site_charge
_atom_site_hybridization
C1_0 C -0.6073516468 -0.1906553776 -0.2058095831 C4 -0.2673638110 SP3
H1_0 H -0.5714177484 -0.1955265261 -0.3373132600 H 0.1423097670 UNKNOWN
H2_0 H -0.5720216766 -0.3270856398 -0.1143934817 H 0.1423097670 UNKNOWN
H3_0 H -0.5497431219 -0.0683724022 -0.0990365442 H 0.1423097670 UNKNOWN
O1_0 O -0.7688274591 -0.1690269058 -0.2967607912 O2 -0.5855322470 SP3
H4_0 H -0.8023510746 -0.1771092482 -0.1758128849 H 0.4259667570 UNKNOWN
H4_1 H -0.8212754509 0.0434240987 -0.4088785340 H 0.4259667570 UNKNOWN
O1_1 O -0.8472447258 0.1775960186 -0.4747106944 O2 -0.5855322470 SP3
C1_1 C -0.7636612601 0.3169379532 -0.3117488920 C4 -0.2673638110 SP3
H1_1 H -0.7966808340 0.4633995257 -0.3788415674 H 0.1423097670 UNKNOWN
H2_1 H -0.6406160326 0.2998908154 -0.2580560684 H 0.1423097670 UNKNOWN
H3_1 H -0.7906821702 0.3019947684 -0.1720166506 H 0.1423097670 UNKNOWN
#END
