#############################################
# Avant-garde Materials Simulation           
#############################################

data_g146
_cell_length_a 6.6331933373
_cell_length_b 14.8993990713
_cell_length_c 4.4338953400
_cell_angle_alpha 90.0000000000
_cell_angle_beta 90.0000000000
_cell_angle_gamma 90.0000000000
_cell_volume 438.2045130714
_exptl_crystal_density_diffrn 0.9713748681
_total_energy -5676.8512986185
_electrostatic_energy 0.0000000000
_vdw_energy -47.7586793420
_bond_energy 0.0000000000
_angle_energy 0.0000000000
_stretch_bend_coupling_energy 0.0000000000
_torsion_energy 0.0000000000
_inversion_energy 0.0000000000
_last_operation minimize_crystal_energy
_last_operation_comment none
_symmetry_cell_setting orthorhombic
_symmetry_space_group_name_H-M 'A e a 2'
_symmetry_Int_Tables_number 41
loop_
_symmetry_equiv_pos_site_id
_symmetry_equiv_pos_as_xyz
1 x,y,z
2 -x,-y,z
3 x+1/2,-y+1/2,z
4 -x+1/2,y+1/2,z
5 x,y+1/2,z+1/2
6 -x,-y+1/2,z+1/2
7 x+1/2,-y,z+1/2
8 -x+1/2,y,z+1/2
loop_
_atom_site_label
_atom_site_type_symbol
_atom_site_fract_x
_atom_site_fract_y
_atom_site_fract_z
_atom_site_fftype
_atom_site_charge
_atom_site_hybridization
C1_0 C -0.0037465991 0.1190093119 0.9313578500 C4 -0.2673638110 SP3
H1_0 H -0.0541668667 0.0862158307 1.1402147426 H 0.1423097670 UNKNOWN
H2_0 H 0.1609909549 0.1103528942 0.9113906362 H 0.1423097670 UNKNOWN
H3_0 H -0.0766069634 0.0849330024 0.7390394585 H 0.1423097670 UNKNOWN
O1_0 O -0.0604060519 0.2108588781 0.9457035173 O2 -0.5855322470 SP3
H4_0 H -0.0160706032 0.2408062483 0.7520410137 H 0.4259667570 UNKNOWN
#END
