#############################################
# Avant-garde Materials Simulation           
#############################################

data_g722
_cell_length_a 4.4468481295
_cell_length_b 7.1403540527
_cell_length_c 6.9135736367
_cell_angle_alpha 90.0000000000
_cell_angle_beta 90.0000000000
_cell_angle_gamma 90.0000000000
_cell_volume 219.5202745005
_exptl_crystal_density_diffrn 0.9695251431
_total_energy -2843.4915597723
_electrostatic_energy 0.0000000000
_vdw_energy -24.1777237952
_bond_energy 0.0000000000
_angle_energy 0.0000000000
_stretch_bend_coupling_energy 0.0000000000
_torsion_energy 0.0000000000
_inversion_energy 0.0000000000
_last_operation minimize_crystal_energy
_last_operation_comment none
_symmetry_cell_setting orthorhombic
_symmetry_space_group_name_H-M 'P n a 2_1'
_symmetry_Int_Tables_number 33
loop_
_symmetry_equiv_pos_site_id
_symmetry_equiv_pos_as_xyz
1 x,y,z
2 -x,-y,z+1/2
3 x+1/2,-y+1/2,z
4 -x+1/2,y+1/2,z+1/2
loop_
_atom_site_label
_atom_site_type_symbol
_atom_site_fract_x
_atom_site_fract_y
_atom_site_fract_z
_atom_site_fftype
_atom_site_charge
_atom_site_hybridization
C1_0 C -0.7493004432 0.9830540491 0.5247335916 C4 -0.2673638110 SP3
H1_0 H -0.5199954893 1.0286299184 0.4899347832 H 0.1423097670 UNKNOWN
H2_0 H -0.8811829180 1.1059798165 0.5707974983 H 0.1423097670 UNKNOWN
H3_0 H -0.8524716782 0.9262688531 0.3923033264 H 0.1423097670 UNKNOWN
O1_0 O -0.7350884248 0.8452833596 0.6750067354 O2 -0.5855322470 SP3
H4_0 H -0.9323104517 0.7746898338 0.6778546020 H 0.4259667570 UNKNOWN
#END
