#############################################
# Avant-garde Materials Simulation           
#############################################

data_g138
_cell_length_a 23.0888502800
_cell_length_b 7.6339381616
_cell_length_c 4.4565182280
_cell_angle_alpha 90.0000000000
_cell_angle_beta 90.0000000000
_cell_angle_gamma 90.0000000000
_cell_volume 785.5008013209
_exptl_crystal_density_diffrn 1.0837948233
_total_energy -11376.1586793788
_electrostatic_energy 0.0000000000
_vdw_energy -107.2192416963
_bond_energy 0.0000000000
_angle_energy 0.0000000000
_stretch_bend_coupling_energy 0.0000000000
_torsion_energy 0.0000000000
_inversion_energy 0.0000000000
_last_operation minimize_crystal_energy
_last_operation_comment none
_symmetry_cell_setting orthorhombic
_symmetry_space_group_name_H-M 'F d d 2'
_symmetry_Int_Tables_number 43
loop_
_symmetry_equiv_pos_site_id
_symmetry_equiv_pos_as_xyz
1 x,y,z
2 -x,-y,z
3 x+1/4,-y+1/4,z+1/4
4 -x+1/4,y+1/4,z+1/4
5 x,y+1/2,z+1/2
6 -x,-y+1/2,z+1/2
7 x+1/4,-y+3/4,z+3/4
8 -x+1/4,y+3/4,z+3/4
9 x+1/2,y,z+1/2
10 -x+1/2,-y,z+1/2
11 x+3/4,-y+1/4,z+3/4
12 -x+3/4,y+1/4,z+3/4
13 x+1/2,y+1/2,z
14 -x+1/2,-y+1/2,z
15 x+3/4,-y+3/4,z+1/4
16 -x+3/4,y+3/4,z+1/4
loop_
_atom_site_label
_atom_site_type_symbol
_atom_site_fract_x
_atom_site_fract_y
_atom_site_fract_z
_atom_site_fftype
_atom_site_charge
_atom_site_hybridization
C1_0 C 0.3049671413 -0.4395132027 0.4997791021 C4 -0.2673638110 SP3
H1_0 H 0.3158326399 -0.3936903630 0.2728399640 H 0.1423097670 UNKNOWN
H2_0 H 0.2607270362 -0.3967794232 0.5546384973 H 0.1423097670 UNKNOWN
H3_0 H 0.3063201360 -0.5834667641 0.5009827837 H 0.1423097670 UNKNOWN
O1_0 O 0.3453680982 -0.3731341934 0.7170797881 O2 -0.5855322470 SP3
H4_0 H 0.3675219967 -0.2724651354 0.6234807316 H 0.4259667570 UNKNOWN
#END
