#############################################
# Avant-garde Materials Simulation           
#############################################

data_g881
_cell_length_a 10.4410896472
_cell_length_b 10.4410896472
_cell_length_c 4.0809813094
_cell_angle_alpha 90.0000000000
_cell_angle_beta 90.0000000000
_cell_angle_gamma 90.0000000000
_cell_volume 444.8936991046
_exptl_crystal_density_diffrn 0.9567697901
_total_energy -5681.1162867175
_electrostatic_energy 0.0000000000
_vdw_energy -47.1985877692
_bond_energy 0.0000000000
_angle_energy 0.0000000000
_stretch_bend_coupling_energy 0.0000000000
_torsion_energy 0.0000000000
_inversion_energy 0.0000000000
_last_operation minimize_crystal_energy
_last_operation_comment none
_symmetry_cell_setting tetragonal
_symmetry_space_group_name_H-M 'I 4_1'
_symmetry_Int_Tables_number 80
loop_
_symmetry_equiv_pos_site_id
_symmetry_equiv_pos_as_xyz
1 x,y,z
2 -x+1/2,-y+1/2,z+1/2
3 -y,x+1/2,z+1/4
4 y+1/2,-x,z+3/4
5 x+1/2,y+1/2,z+1/2
6 -x,-y,z
7 -y+1/2,x,z+3/4
8 y,-x+1/2,z+1/4
loop_
_atom_site_label
_atom_site_type_symbol
_atom_site_fract_x
_atom_site_fract_y
_atom_site_fract_z
_atom_site_fftype
_atom_site_charge
_atom_site_hybridization
C1_0 C -0.5092014276 -0.1903324422 0.9965482342 C4 -0.2673638110 SP3
H1_0 H -0.5026141958 -0.2741654183 1.1595312696 H 0.1423097670 UNKNOWN
H2_0 H -0.5950585679 -0.1991971908 0.8406514642 H 0.1423097670 UNKNOWN
H3_0 H -0.5191979278 -0.1045536019 1.1493842935 H 0.1423097670 UNKNOWN
O1_0 O -0.3965454780 -0.1765329912 0.8000949584 O2 -0.5855322470 SP3
H4_0 H -0.3732825764 -0.2632453184 0.7077847877 H 0.4259667570 UNKNOWN
#END
