#############################################
# Avant-garde Materials Simulation           
#############################################

data_g115
_cell_length_a 11.3113416718
_cell_length_b 4.3604211553
_cell_length_c 4.8291523859
_cell_angle_alpha 90.0000000000
_cell_angle_beta 86.5140544551
_cell_angle_gamma 90.0000000000
_cell_volume 237.7437826797
_exptl_crystal_density_diffrn 0.8952092170
_total_energy -2840.9571514013
_electrostatic_energy 0.0000000000
_vdw_energy -21.5828051400
_bond_energy 0.0000000000
_angle_energy 0.0000000000
_stretch_bend_coupling_energy 0.0000000000
_torsion_energy 0.0000000000
_inversion_energy 0.0000000000
_last_operation minimize_crystal_energy
_last_operation_comment none
_symmetry_cell_setting monoclinic
_symmetry_space_group_name_H-M 'C 2'
_symmetry_Int_Tables_number 5
loop_
_symmetry_equiv_pos_site_id
_symmetry_equiv_pos_as_xyz
1 x,y,z
2 -x,y,-z
3 x+1/2,y+1/2,z
4 -x+1/2,y+1/2,-z
loop_
_atom_site_label
_atom_site_type_symbol
_atom_site_fract_x
_atom_site_fract_y
_atom_site_fract_z
_atom_site_fftype
_atom_site_charge
_atom_site_hybridization
C1_0 C 0.1197395826 0.6695170012 -0.2598296913 C4 -0.2673638110 SP3
H1_0 H 0.0664471503 0.4596220752 -0.2673067732 H 0.1423097670 UNKNOWN
H2_0 H 0.1771005969 0.6850093810 -0.4519403089 H 0.1423097670 UNKNOWN
H3_0 H 0.0583553893 0.8659431221 -0.2502147536 H 0.1423097670 UNKNOWN
O1_0 O 0.1862136618 0.6555889689 -0.0169727392 O2 -0.5855322470 SP3
H4_0 H 0.2342625766 0.8503392139 -0.0052151264 H 0.4259667570 UNKNOWN
#END
