#############################################
# Avant-garde Materials Simulation           
#############################################

data_g2061
_cell_length_a 4.0598900211
_cell_length_b 7.6990970650
_cell_length_c 7.7453946936
_cell_angle_alpha 90.0000000000
_cell_angle_beta 119.3388002995
_cell_angle_gamma 90.0000000000
_cell_volume 211.0490633694
_exptl_crystal_density_diffrn 1.0084405121
_total_energy -2838.3968357382
_electrostatic_energy 0.0000000000
_vdw_energy -24.4811183143
_bond_energy 0.0000000000
_angle_energy 0.0000000000
_stretch_bend_coupling_energy 0.0000000000
_torsion_energy 0.0000000000
_inversion_energy 0.0000000000
_last_operation minimize_crystal_energy
_last_operation_comment none
_symmetry_cell_setting monoclinic
_symmetry_space_group_name_H-M 'P c'
_symmetry_Int_Tables_number 7
loop_
_symmetry_equiv_pos_site_id
_symmetry_equiv_pos_as_xyz
1 x,y,z
2 x,-y,z+1/2
loop_
_atom_site_label
_atom_site_type_symbol
_atom_site_fract_x
_atom_site_fract_y
_atom_site_fract_z
_atom_site_fftype
_atom_site_charge
_atom_site_hybridization
C1_0 C -0.0821116280 0.8103337371 0.4684257740 C4 -0.2673638110 SP3
H1_0 H 0.1591398827 0.7852933926 0.4439842149 H 0.1423097670 UNKNOWN
H2_0 H -0.2435035088 0.6895395102 0.4427279359 H 0.1423097670 UNKNOWN
H3_0 H 0.0240363907 0.8512505643 0.6228429808 H 0.1423097670 UNKNOWN
O1_0 O -0.3308177410 0.9380930213 0.3334615632 O2 -0.5855322470 SP3
H4_0 H -0.1894830467 1.0499916469 0.3689572395 H 0.4259667570 UNKNOWN
H4_1 H -0.6651012656 0.8528349417 0.1240742513 H 0.4259667570 UNKNOWN
O1_1 O -0.8744578460 0.7900364428 0.0094912928 O2 -0.5855322470 SP3
C1_1 C -0.7209717081 0.6401172774 -0.0340679140 C4 -0.2673638110 SP3
H1_1 H -0.9412740935 0.5835469076 -0.1731319721 H 0.1423097670 UNKNOWN
H2_1 H -0.6370594427 0.5410193708 0.0831955392 H 0.1423097670 UNKNOWN
H3_1 H -0.4731200303 0.6731993366 -0.0497281561 H 0.1423097670 UNKNOWN
#END
