#############################################
# Avant-garde Materials Simulation           
#############################################

data_g142
_cell_length_a 10.3703130910
_cell_length_b 10.3703130910
_cell_length_c 3.7398260658
_cell_angle_alpha 90.0000000000
_cell_angle_beta 90.0000000000
_cell_angle_gamma 90.0000000000
_cell_volume 402.1935866076
_exptl_crystal_density_diffrn 1.0583481817
_total_energy -5667.9252937824
_electrostatic_energy 0.0000000000
_vdw_energy -53.9259280825
_bond_energy 0.0000000000
_angle_energy 0.0000000000
_stretch_bend_coupling_energy 0.0000000000
_torsion_energy 0.0000000000
_inversion_energy 0.0000000000
_last_operation minimize_crystal_energy
_last_operation_comment none
_symmetry_cell_setting tetragonal
_symmetry_space_group_name_H-M 'I 4'
_symmetry_Int_Tables_number 79
loop_
_symmetry_equiv_pos_site_id
_symmetry_equiv_pos_as_xyz
1 x,y,z
2 -x,-y,z
3 -y,x,z
4 y,-x,z
5 x+1/2,y+1/2,z+1/2
6 -x+1/2,-y+1/2,z+1/2
7 -y+1/2,x+1/2,z+1/2
8 y+1/2,-x+1/2,z+1/2
loop_
_atom_site_label
_atom_site_type_symbol
_atom_site_fract_x
_atom_site_fract_y
_atom_site_fract_z
_atom_site_fftype
_atom_site_charge
_atom_site_hybridization
C1_0 C 0.0723588489 -0.2410165562 1.0080052195 C4 -0.2673638110 SP3
H1_0 H 0.0084145623 -0.1841839463 0.8333235489 H 0.1423097670 UNKNOWN
H2_0 H 0.1568264211 -0.2723469651 0.8523239845 H 0.1423097670 UNKNOWN
H3_0 H 0.1051440950 -0.1792652252 1.2282796987 H 0.1423097670 UNKNOWN
O1_0 O 0.0057566485 -0.3481246847 1.1616735481 O2 -0.5855322470 SP3
H4_0 H -0.0397761188 -0.3953408684 0.9693132974 H 0.4259667570 UNKNOWN
#END
