#############################################
# Avant-garde Materials Simulation           
#############################################

data_g178
_cell_length_a 7.1253018771
_cell_length_b 4.7034403217
_cell_length_c 6.5085986513
_cell_angle_alpha 90.0000000000
_cell_angle_beta 90.0000000000
_cell_angle_gamma 90.0000000000
_cell_volume 218.1254793124
_exptl_crystal_density_diffrn 0.9757247352
_total_energy -2836.6373391233
_electrostatic_energy 0.0000000000
_vdw_energy -23.4907069215
_bond_energy 0.0000000000
_angle_energy 0.0000000000
_stretch_bend_coupling_energy 0.0000000000
_torsion_energy 0.0000000000
_inversion_energy 0.0000000000
_last_operation minimize_crystal_energy
_last_operation_comment none
_symmetry_cell_setting orthorhombic
_symmetry_space_group_name_H-M 'P b c m'
_symmetry_Int_Tables_number 57
loop_
_symmetry_equiv_pos_site_id
_symmetry_equiv_pos_as_xyz
1 x,y,z
2 -x,-y,z+1/2
3 -x,y+1/2,-z+1/2
4 x,-y+1/2,-z
5 -x,-y,-z
6 x,y,-z+1/2
7 x,-y+1/2,z+1/2
8 -x,y+1/2,z
loop_
_atom_site_label
_atom_site_type_symbol
_atom_site_fract_x
_atom_site_fract_y
_atom_site_fract_z
_atom_site_fftype
_atom_site_charge
_atom_site_hybridization
C1_0 C 0.2772459312 0.5522936526 0.7500000000 C4 -0.2673638110 SP3
H1_0 H 0.3421352054 0.7641085547 0.7500000000 H 0.1423097670 UNKNOWN
H2_0 H 0.3265625168 0.4372225321 0.6121802464 H 0.1423097670 UNKNOWN
O1_0 O 0.0800354640 0.5871345441 0.7500000000 O2 -0.5855322470 SP3
H4_0 H 0.0174408415 0.3955500908 0.7500000000 H 0.4259667570 UNKNOWN
#END
