#############################################
# Avant-garde Materials Simulation           
#############################################

data_g1550
_cell_length_a 14.5345097517
_cell_length_b 4.5685573590
_cell_length_c 6.6156052631
_cell_angle_alpha 90.0000000000
_cell_angle_beta 70.0131344819
_cell_angle_gamma 90.0000000000
_cell_volume 412.8298512845
_exptl_crystal_density_diffrn 1.0310806008
_total_energy -5678.6870451581
_electrostatic_energy 0.0000000000
_vdw_energy -50.8506804757
_bond_energy 0.0000000000
_angle_energy 0.0000000000
_stretch_bend_coupling_energy 0.0000000000
_torsion_energy 0.0000000000
_inversion_energy 0.0000000000
_last_operation minimize_crystal_energy
_last_operation_comment none
_symmetry_cell_setting monoclinic
_symmetry_space_group_name_H-M 'C 2'
_symmetry_Int_Tables_number 5
loop_
_symmetry_equiv_pos_site_id
_symmetry_equiv_pos_as_xyz
1 x,y,z
2 -x,y,-z
3 x+1/2,y+1/2,z
4 -x+1/2,y+1/2,-z
loop_
_atom_site_label
_atom_site_type_symbol
_atom_site_fract_x
_atom_site_fract_y
_atom_site_fract_z
_atom_site_fftype
_atom_site_charge
_atom_site_hybridization
C1_0 C 0.1272266895 0.2621113281 0.6735673173 C4 -0.2673638110 SP3
H1_0 H 0.2014334778 0.1676472919 0.6137037822 H 0.1423097670 UNKNOWN
H2_0 H 0.0892245509 0.1964470825 0.5631129183 H 0.1423097670 UNKNOWN
H3_0 H 0.0867993020 0.1673526812 0.8327841042 H 0.1423097670 UNKNOWN
O1_0 O 0.1286933651 0.5744700704 0.6785999085 O2 -0.5855322470 SP3
H4_0 H 0.1598903139 0.6345685796 0.7831924780 H 0.4259667570 UNKNOWN
H2_1 H -0.0566531052 0.5989852095 0.8205535681 H 0.1423097670 UNKNOWN
C1_1 C -0.1121057017 0.7531070328 0.8076179632 C4 -0.2673638110 SP3
H1_1 H -0.1259167759 0.7177382428 0.6560911163 H 0.1423097670 UNKNOWN
H3_1 H -0.0834935632 0.9753840430 0.8099230287 H 0.1423097670 UNKNOWN
O1_1 O -0.2006143878 0.7113945374 0.9916966737 O2 -0.5855322470 SP3
H4_1 H -0.2409253929 0.8940848628 1.0068283998 H 0.4259667570 UNKNOWN
#END
