#############################################
# Avant-garde Materials Simulation           
#############################################

data_g193
_cell_length_a 11.3399891934
_cell_length_b 11.3399891934
_cell_length_c 4.4256763865
_cell_angle_alpha 90.0000000000
_cell_angle_beta 90.0000000000
_cell_angle_gamma 120.0000000000
_cell_volume 492.8736124345
_exptl_crystal_density_diffrn 0.9715846931
_total_energy -6392.3669961874
_electrostatic_energy 0.0000000000
_vdw_energy -54.7312211683
_bond_energy 0.0000000000
_angle_energy 0.0000000000
_stretch_bend_coupling_energy 0.0000000000
_torsion_energy 0.0000000000
_inversion_energy 0.0000000000
_last_operation minimize_crystal_energy
_last_operation_comment none
_symmetry_cell_setting hexagonal
_symmetry_space_group_name_H-M 'R 3'
_symmetry_Int_Tables_number 146
loop_
_symmetry_equiv_pos_site_id
_symmetry_equiv_pos_as_xyz
1 x,y,z
2 -y,x-y,z
3 -x+y,-x,z
4 x+2/3,y+1/3,z+1/3
5 -y+2/3,x-y+1/3,z+1/3
6 -x+y+2/3,-x+1/3,z+1/3
7 x+1/3,y+2/3,z+2/3
8 -y+1/3,x-y+2/3,z+2/3
9 -x+y+1/3,-x+2/3,z+2/3
loop_
_atom_site_label
_atom_site_type_symbol
_atom_site_fract_x
_atom_site_fract_y
_atom_site_fract_z
_atom_site_fftype
_atom_site_charge
_atom_site_hybridization
C1_0 C 0.1052786890 -0.4376953376 0.8989951436 C4 -0.2673638110 SP3
H1_0 H 0.1486931469 -0.3443916397 0.7629388232 H 0.1423097670 UNKNOWN
H2_0 H 0.1725600004 -0.4203589954 1.0935580890 H 0.1423097670 UNKNOWN
H3_0 H 0.0046037554 -0.4613054127 0.9854126728 H 0.1423097670 UNKNOWN
O1_0 O 0.0958090296 -0.5452031805 0.7106141631 O2 -0.5855322470 SP3
H4_0 H 0.0794645495 -0.6245383221 0.8430491344 H 0.4259667570 UNKNOWN
#END
