#############################################
# Avant-garde Materials Simulation           
#############################################

data_g217
_cell_length_a 14.6054682702
_cell_length_b 6.6400465891
_cell_length_c 4.4575059375
_cell_angle_alpha 90.0000000000
_cell_angle_beta 90.0000000000
_cell_angle_gamma 90.0000000000
_cell_volume 432.2933377204
_exptl_crystal_density_diffrn 0.9846574396
_total_energy -5677.5050287387
_electrostatic_energy 0.0000000000
_vdw_energy -48.2492136601
_bond_energy 0.0000000000
_angle_energy 0.0000000000
_stretch_bend_coupling_energy 0.0000000000
_torsion_energy 0.0000000000
_inversion_energy 0.0000000000
_last_operation minimize_crystal_energy
_last_operation_comment none
_symmetry_cell_setting orthorhombic
_symmetry_space_group_name_H-M 'I b a 2'
_symmetry_Int_Tables_number 45
loop_
_symmetry_equiv_pos_site_id
_symmetry_equiv_pos_as_xyz
1 x,y,z
2 -x,-y,z
3 x+1/2,-y+1/2,z
4 -x+1/2,y+1/2,z
5 x+1/2,y+1/2,z+1/2
6 -x+1/2,-y+1/2,z+1/2
7 x,-y,z+1/2
8 -x,y,z+1/2
loop_
_atom_site_label
_atom_site_type_symbol
_atom_site_fract_x
_atom_site_fract_y
_atom_site_fract_z
_atom_site_fftype
_atom_site_charge
_atom_site_hybridization
C1_0 C 0.1162508312 -0.7534882030 1.0896088632 C4 -0.2673638110 SP3
H1_0 H 0.0817370736 -0.8324126368 0.9033337244 H 0.1423097670 UNKNOWN
H2_0 H 0.1068778879 -0.5898111799 1.0589879112 H 0.1423097670 UNKNOWN
H3_0 H 0.0829405202 -0.7980821957 1.3004454261 H 0.1423097670 UNKNOWN
O1_0 O 0.2101166666 -0.8082800242 1.1074476916 O2 -0.5855322470 SP3
H4_0 H 0.2408521432 -0.7661002546 0.9141983427 H 0.4259667570 UNKNOWN
#END
