#############################################
# Avant-garde Materials Simulation           
#############################################

data_g1445
_cell_length_a 5.3816086277
_cell_length_b 4.4211904838
_cell_length_c 9.8765050350
_cell_angle_alpha 90.0000000000
_cell_angle_beta 62.6394246929
_cell_angle_gamma 90.0000000000
_cell_volume 208.7046205667
_exptl_crystal_density_diffrn 1.0197686327
_total_energy -2844.6674122860
_electrostatic_energy 0.0000000000
_vdw_energy -24.9611440509
_bond_energy 0.0000000000
_angle_energy 0.0000000000
_stretch_bend_coupling_energy 0.0000000000
_torsion_energy 0.0000000000
_inversion_energy 0.0000000000
_last_operation minimize_crystal_energy
_last_operation_comment none
_symmetry_cell_setting monoclinic
_symmetry_space_group_name_H-M 'P c'
_symmetry_Int_Tables_number 7
loop_
_symmetry_equiv_pos_site_id
_symmetry_equiv_pos_as_xyz
1 x,y,z
2 x,-y,z+1/2
loop_
_atom_site_label
_atom_site_type_symbol
_atom_site_fract_x
_atom_site_fract_y
_atom_site_fract_z
_atom_site_fftype
_atom_site_charge
_atom_site_hybridization
C1_0 C -0.5697741896 0.0026425217 0.1029642705 C4 -0.2673638110 SP3
H1_0 H -0.4456165164 0.2109645812 0.0776289355 H 0.1423097670 UNKNOWN
H2_0 H -0.4248376757 -0.1907270156 0.0663355170 H 0.1423097670 UNKNOWN
H3_0 H -0.7038251553 -0.0116968842 0.2270955075 H 0.1423097670 UNKNOWN
O1_0 O -0.7316887534 0.0124727442 0.0208668239 O2 -0.5855322470 SP3
H4_0 H -0.8447916008 -0.1803158018 0.0441441816 H 0.4259667570 UNKNOWN
H4_1 H -0.9179255120 0.3197423290 0.0623533257 H 0.4259667570 UNKNOWN
O1_1 O -1.0314299242 0.5122555783 0.0957952591 O2 -0.5855322470 SP3
C1_1 C -1.1935468864 0.5012478040 0.2589520744 C4 -0.2673638110 SP3
H1_1 H -1.3252485842 0.7042297589 0.2956745634 H 0.1423097670 UNKNOWN
H2_1 H -1.0596514200 0.4963185997 0.3162535555 H 0.1423097670 UNKNOWN
H3_1 H -1.3312700469 0.3017645461 0.2946845459 H 0.1423097670 UNKNOWN
#END
