#############################################
# Avant-garde Materials Simulation           
#############################################

data_g243
_cell_length_a 4.0963548347
_cell_length_b 6.8392604774
_cell_length_c 4.4057293352
_cell_angle_alpha 90.0000000000
_cell_angle_beta 58.6619125405
_cell_angle_gamma 90.0000000000
_cell_volume 105.4241252119
_exptl_crystal_density_diffrn 1.0094009560
_total_energy -1421.7438569714
_electrostatic_energy 0.0000000000
_vdw_energy -12.5563044022
_bond_energy 0.0000000000
_angle_energy 0.0000000000
_stretch_bend_coupling_energy 0.0000000000
_torsion_energy 0.0000000000
_inversion_energy 0.0000000000
_last_operation minimize_crystal_energy
_last_operation_comment none
_symmetry_cell_setting monoclinic
_symmetry_space_group_name_H-M 'P c'
_symmetry_Int_Tables_number 7
loop_
_symmetry_equiv_pos_site_id
_symmetry_equiv_pos_as_xyz
1 x,y,z
2 x,-y,z+1/2
loop_
_atom_site_label
_atom_site_type_symbol
_atom_site_fract_x
_atom_site_fract_y
_atom_site_fract_z
_atom_site_fftype
_atom_site_charge
_atom_site_hybridization
C1_0 C -0.7381858957 0.7606105698 0.3086246414 C4 -0.2673638110 SP3
H1_0 H -0.5843015755 0.7743190514 0.4506533889 H 0.1423097670 UNKNOWN
H2_0 H -0.8911778615 0.8983390143 0.3362924775 H 0.1423097670 UNKNOWN
H3_0 H -0.5282258892 0.7347656043 0.0256755490 H 0.1423097670 UNKNOWN
O1_0 O -1.0025411093 0.6011476954 0.4577259346 O2 -0.5855322470 SP3
H4_0 H -0.9998900929 0.5250542162 0.2593476976 H 0.4259667570 UNKNOWN
#END
