#############################################
# Avant-garde Materials Simulation           
#############################################

data_g2333
_cell_length_a 4.3493302805
_cell_length_b 15.4794063587
_cell_length_c 4.1244279676
_cell_angle_alpha 90.0000000000
_cell_angle_beta 120.1105392638
_cell_angle_gamma 90.0000000000
_cell_volume 240.2073100836
_exptl_crystal_density_diffrn 0.8860280958
_total_energy -2841.7812568926
_electrostatic_energy 0.0000000000
_vdw_energy -22.5254888804
_bond_energy 0.0000000000
_angle_energy 0.0000000000
_stretch_bend_coupling_energy 0.0000000000
_torsion_energy 0.0000000000
_inversion_energy 0.0000000000
_last_operation minimize_crystal_energy
_last_operation_comment none
_symmetry_cell_setting monoclinic
_symmetry_space_group_name_H-M 'C m'
_symmetry_Int_Tables_number 8
loop_
_symmetry_equiv_pos_site_id
_symmetry_equiv_pos_as_xyz
1 x,y,z
2 x,-y,z
3 x+1/2,y+1/2,z
4 x+1/2,-y+1/2,z
loop_
_atom_site_label
_atom_site_type_symbol
_atom_site_fract_x
_atom_site_fract_y
_atom_site_fract_z
_atom_site_fftype
_atom_site_charge
_atom_site_hybridization
C1_0 C -1.2904932019 -0.3667631587 -0.5543220051 C4 -0.2673638110 SP3
H1_0 H -1.0257793103 -0.3504295895 -0.3191055162 H 0.1423097670 UNKNOWN
H2_0 H -1.2680157172 -0.4246680599 -0.6973342388 H 0.1423097670 UNKNOWN
H3_0 H -1.4670868855 -0.3815172079 -0.4429750108 H 0.1423097670 UNKNOWN
O1_0 O -1.4389135305 -0.2961754844 -0.8117994753 O2 -0.5855322470 SP3
H4_0 H -1.2396387935 -0.2616107957 -0.8079735440 H 0.4259667570 UNKNOWN
#END
