#############################################
# Avant-garde Materials Simulation           
#############################################

data_g1693
_cell_length_a 22.0305444850
_cell_length_b 4.4331868928
_cell_length_c 4.4634315973
_cell_angle_alpha 90.0000000000
_cell_angle_beta 90.0544103175
_cell_angle_gamma 90.0000000000
_cell_volume 435.9231760675
_exptl_crystal_density_diffrn 0.9764584093
_total_energy -5687.1315900643
_electrostatic_energy 0.0000000000
_vdw_energy -48.1785987122
_bond_energy 0.0000000000
_angle_energy 0.0000000000
_stretch_bend_coupling_energy 0.0000000000
_torsion_energy 0.0000000000
_inversion_energy 0.0000000000
_last_operation minimize_crystal_energy
_last_operation_comment none
_symmetry_cell_setting monoclinic
_symmetry_space_group_name_H-M 'C 2'
_symmetry_Int_Tables_number 5
loop_
_symmetry_equiv_pos_site_id
_symmetry_equiv_pos_as_xyz
1 x,y,z
2 -x,y,-z
3 x+1/2,y+1/2,z
4 -x+1/2,y+1/2,-z
loop_
_atom_site_label
_atom_site_type_symbol
_atom_site_fract_x
_atom_site_fract_y
_atom_site_fract_z
_atom_site_fftype
_atom_site_charge
_atom_site_hybridization
C1_0 C 0.1921004802 0.6874665646 0.2521364125 C4 -0.2673638110 SP3
H1_0 H 0.1942811701 0.5545790544 0.4591556804 H 0.1423097670 UNKNOWN
H2_0 H 0.2329279208 0.8301567844 0.2362872432 H 0.1423097670 UNKNOWN
H3_0 H 0.1909929381 0.5304817251 0.0613247190 H 0.1423097670 UNKNOWN
O1_0 O 0.1375844792 0.8642749619 0.2624134207 O2 -0.5855322470 SP3
H4_0 H 0.1339461295 0.9801692340 0.0684532409 H 0.4259667570 UNKNOWN
H4_1 H 0.1313336236 1.0564554245 0.5680965312 H 0.4259667570 UNKNOWN
O1_1 O 0.1269222440 1.1737283101 0.7612513763 O2 -0.5855322470 SP3
C1_1 C 0.0702127646 1.3323077829 0.7515957697 C4 -0.2673638110 SP3
H1_1 H 0.0314335470 1.1751560193 0.7453178201 H 0.1423097670 UNKNOWN
H2_1 H 0.0682077788 1.4826724421 0.5554790015 H 0.1423097670 UNKNOWN
H3_1 H 0.0671797483 1.4711607556 0.9546816400 H 0.1423097670 UNKNOWN
#END
