#############################################
# Avant-garde Materials Simulation           
#############################################

data_g6
_cell_length_a 14.0128348932
_cell_length_b 7.1938452556
_cell_length_c 4.4833251779
_cell_angle_alpha 90.0000000000
_cell_angle_beta 109.0193279008
_cell_angle_gamma 90.0000000000
_cell_volume 427.2744550227
_exptl_crystal_density_diffrn 0.9962234954
_total_energy -5686.9772418529
_electrostatic_energy 0.0000000000
_vdw_energy -50.0766408189
_bond_energy 0.0000000000
_angle_energy 0.0000000000
_stretch_bend_coupling_energy 0.0000000000
_torsion_energy 0.0000000000
_inversion_energy 0.0000000000
_last_operation minimize_crystal_energy
_last_operation_comment none
_symmetry_cell_setting monoclinic
_symmetry_space_group_name_H-M 'C 2/c'
_symmetry_Int_Tables_number 15
loop_
_symmetry_equiv_pos_site_id
_symmetry_equiv_pos_as_xyz
1 x,y,z
2 -x,y,-z+1/2
3 -x,-y,-z
4 x,-y,z+1/2
5 x+1/2,y+1/2,z
6 -x+1/2,y+1/2,-z+1/2
7 -x+1/2,-y+1/2,-z
8 x+1/2,-y+1/2,z+1/2
loop_
_atom_site_label
_atom_site_type_symbol
_atom_site_fract_x
_atom_site_fract_y
_atom_site_fract_z
_atom_site_fftype
_atom_site_charge
_atom_site_hybridization
C1_0 C 0.1213101730 0.2351310917 0.1223285016 C4 -0.2673638110 SP3
H1_0 H 0.1291759158 0.3229093533 -0.0684302398 H 0.1423097670 UNKNOWN
H2_0 H 0.1318097031 0.3222178791 0.3325056964 H 0.1423097670 UNKNOWN
H3_0 H 0.0447500172 0.1747495506 0.0482844917 H 0.1423097670 UNKNOWN
O1_0 O 0.1974877355 0.0945474971 0.1845594573 O2 -0.5855322470 SP3
H4_0 H 0.1973325545 0.0225060253 0.3780539337 H 0.4259667570 UNKNOWN
#END
