#############################################
# Avant-garde Materials Simulation           
#############################################

data_g294
_cell_length_a 8.2088514655
_cell_length_b 8.2088514655
_cell_length_c 7.1040140489
_cell_angle_alpha 90.0000000000
_cell_angle_beta 90.0000000000
_cell_angle_gamma 90.0000000000
_cell_volume 478.7057085773
_exptl_crystal_density_diffrn 0.8891910906
_total_energy -5673.8290188455
_electrostatic_energy 0.0000000000
_vdw_energy -44.0371771347
_bond_energy 0.0000000000
_angle_energy 0.0000000000
_stretch_bend_coupling_energy 0.0000000000
_torsion_energy 0.0000000000
_inversion_energy 0.0000000000
_last_operation minimize_crystal_energy
_last_operation_comment none
_symmetry_cell_setting tetragonal
_symmetry_space_group_name_H-M 'I 4'
_symmetry_Int_Tables_number 79
loop_
_symmetry_equiv_pos_site_id
_symmetry_equiv_pos_as_xyz
1 x,y,z
2 -x,-y,z
3 -y,x,z
4 y,-x,z
5 x+1/2,y+1/2,z+1/2
6 -x+1/2,-y+1/2,z+1/2
7 -y+1/2,x+1/2,z+1/2
8 y+1/2,-x+1/2,z+1/2
loop_
_atom_site_label
_atom_site_type_symbol
_atom_site_fract_x
_atom_site_fract_y
_atom_site_fract_z
_atom_site_fftype
_atom_site_charge
_atom_site_hybridization
C1_0 C -0.8549586199 0.3187194952 0.4913199170 C4 -0.2673638110 SP3
H1_0 H -0.7253316866 0.2948673562 0.4644313744 H 0.1423097670 UNKNOWN
H2_0 H -0.8685954591 0.4453001476 0.5385767083 H 0.1423097670 UNKNOWN
H3_0 H -0.9216391652 0.3042989946 0.3575725305 H 0.1423097670 UNKNOWN
O1_0 O -0.9177611566 0.2130365102 0.6348703984 O2 -0.5855322470 SP3
H4_0 H -0.8569240161 0.1066844388 0.6293976618 H 0.4259667570 UNKNOWN
#END
