#############################################
# Avant-garde Materials Simulation           
#############################################

data_g971
_cell_length_a 4.1594915204
_cell_length_b 13.6769763561
_cell_length_c 4.1609789545
_cell_angle_alpha 90.0000000000
_cell_angle_beta 62.5939630879
_cell_angle_gamma 90.0000000000
_cell_volume 210.1477783623
_exptl_crystal_density_diffrn 1.0127655272
_total_energy -2843.1497206880
_electrostatic_energy 0.0000000000
_vdw_energy -25.0547915867
_bond_energy 0.0000000000
_angle_energy 0.0000000000
_stretch_bend_coupling_energy 0.0000000000
_torsion_energy 0.0000000000
_inversion_energy 0.0000000000
_last_operation minimize_crystal_energy
_last_operation_comment none
_symmetry_cell_setting monoclinic
_symmetry_space_group_name_H-M 'P 2_1'
_symmetry_Int_Tables_number 4
loop_
_symmetry_equiv_pos_site_id
_symmetry_equiv_pos_as_xyz
1 x,y,z
2 -x,y+1/2,-z
loop_
_atom_site_label
_atom_site_type_symbol
_atom_site_fract_x
_atom_site_fract_y
_atom_site_fract_z
_atom_site_fftype
_atom_site_charge
_atom_site_hybridization
C1_0 C -0.7419650803 0.4283783970 0.8193348410 C4 -0.2673638110 SP3
H1_0 H -0.7279782411 0.4080683669 0.5574694344 H 0.1423097670 UNKNOWN
H2_0 H -0.5657350209 0.4922380173 0.7803467789 H 0.1423097670 UNKNOWN
H3_0 H -1.0222466500 0.4486633394 1.0066962133 H 0.1423097670 UNKNOWN
O1_0 O -0.6379190190 0.3484703564 0.9741538736 O2 -0.5855322470 SP3
H4_0 H -0.4431444760 0.3093480842 0.7715896067 H 0.4259667570 UNKNOWN
H4_1 H -0.9624193172 0.2815097835 1.2528858917 H 0.4259667570 UNKNOWN
O1_1 O -1.1647709763 0.2422552394 1.4473415321 O2 -0.5855322470 SP3
C1_1 C -1.0097809382 0.1623426769 1.5513500836 C4 -0.2673638110 SP3
H1_1 H -0.9774521170 0.0979050321 1.3796150075 H 0.1423097670 UNKNOWN
H2_1 H -1.1937053004 0.1431591749 1.8334624360 H 0.1423097670 UNKNOWN
H3_1 H -0.7446761527 0.1821031664 1.5308967522 H 0.1423097670 UNKNOWN
#END
