#############################################
# Avant-garde Materials Simulation           
#############################################

data_g305
_cell_length_a 8.0574656182
_cell_length_b 8.0574656182
_cell_length_c 6.4783122825
_cell_angle_alpha 90.0000000000
_cell_angle_beta 90.0000000000
_cell_angle_gamma 90.0000000000
_cell_volume 420.5898629196
_exptl_crystal_density_diffrn 1.0120568483
_total_energy -5673.2074520437
_electrostatic_energy 0.0000000000
_vdw_energy -49.6159253033
_bond_energy 0.0000000000
_angle_energy 0.0000000000
_stretch_bend_coupling_energy 0.0000000000
_torsion_energy 0.0000000000
_inversion_energy 0.0000000000
_last_operation minimize_crystal_energy
_last_operation_comment none
_symmetry_cell_setting tetragonal
_symmetry_space_group_name_H-M 'I 4/m'
_symmetry_Int_Tables_number 87
loop_
_symmetry_equiv_pos_site_id
_symmetry_equiv_pos_as_xyz
1 x,y,z
2 -x,-y,z
3 -y,x,z
4 y,-x,z
5 -x,-y,-z
6 x,y,-z
7 y,-x,-z
8 -y,x,-z
9 x+1/2,y+1/2,z+1/2
10 -x+1/2,-y+1/2,z+1/2
11 -y+1/2,x+1/2,z+1/2
12 y+1/2,-x+1/2,z+1/2
13 -x+1/2,-y+1/2,-z+1/2
14 x+1/2,y+1/2,-z+1/2
15 y+1/2,-x+1/2,-z+1/2
16 -y+1/2,x+1/2,-z+1/2
loop_
_atom_site_label
_atom_site_type_symbol
_atom_site_fract_x
_atom_site_fract_y
_atom_site_fract_z
_atom_site_fftype
_atom_site_charge
_atom_site_hybridization
C1_0 C 0.6416261111 -0.1945048925 -1.5000000000 C4 -0.2673638110 SP3
H1_0 H 0.5723205900 -0.1561708840 -1.6387825600 H 0.1423097670 UNKNOWN
H3_0 H 0.6496589072 -0.3302928207 -1.5000000000 H 0.1423097670 UNKNOWN
O1_0 O 0.8063039444 -0.1304217897 -1.5000000000 O2 -0.5855322470 SP3
H4_0 H 0.8063914902 -0.0068265719 -1.5000000000 H 0.4259667570 UNKNOWN
#END
