#############################################
# Avant-garde Materials Simulation           
#############################################

data_g2039
_cell_length_a 4.7866306859
_cell_length_b 13.0961125056
_cell_length_c 6.6617150070
_cell_angle_alpha 90.0000000000
_cell_angle_beta 103.2712708051
_cell_angle_gamma 90.0000000000
_cell_volume 406.4456303080
_exptl_crystal_density_diffrn 1.0472762391
_total_energy -5684.3153235484
_electrostatic_energy 0.0000000000
_vdw_energy -51.4666001013
_bond_energy 0.0000000000
_angle_energy 0.0000000000
_stretch_bend_coupling_energy 0.0000000000
_torsion_energy 0.0000000000
_inversion_energy 0.0000000000
_last_operation minimize_crystal_energy
_last_operation_comment none
_symmetry_cell_setting monoclinic
_symmetry_space_group_name_H-M 'C c'
_symmetry_Int_Tables_number 9
loop_
_symmetry_equiv_pos_site_id
_symmetry_equiv_pos_as_xyz
1 x,y,z
2 x,-y,z+1/2
3 x+1/2,y+1/2,z
4 x+1/2,-y+1/2,z+1/2
loop_
_atom_site_label
_atom_site_type_symbol
_atom_site_fract_x
_atom_site_fract_y
_atom_site_fract_z
_atom_site_fftype
_atom_site_charge
_atom_site_hybridization
C1_0 C -0.4453907548 -0.4276969330 -0.6329526453 C4 -0.2673638110 SP3
H1_0 H -0.3637029268 -0.4977933122 -0.5486154237 H 0.1423097670 UNKNOWN
H2_0 H -0.6007494714 -0.4492750805 -0.7745949019 H 0.1423097670 UNKNOWN
H3_0 H -0.5552243616 -0.3813966717 -0.5366369195 H 0.1423097670 UNKNOWN
O1_0 O -0.2162966471 -0.3721580660 -0.6909523940 O2 -0.5855322470 SP3
H4_0 H -0.0814748504 -0.3490596291 -0.5599442360 H 0.4259667570 UNKNOWN
H3_1 H -0.8461163850 -0.3307419843 -1.0146428815 H 0.1423097670 UNKNOWN
C1_1 C -0.9853791111 -0.3537926875 -1.1629098837 C4 -0.2673638110 SP3
H1_1 H -0.9835422771 -0.4373536585 -1.1743872754 H 0.1423097670 UNKNOWN
H2_1 H -1.2063527832 -0.3285954756 -1.1666985060 H 0.1423097670 UNKNOWN
O1_1 O -0.8825410230 -0.3125856178 -1.3323167951 O2 -0.5855322470 SP3
H4_1 H -0.8257741019 -0.2395627274 -1.2966601215 H 0.4259667570 UNKNOWN
#END
