#############################################
# Avant-garde Materials Simulation           
#############################################

data_g68
_cell_length_a 7.6402989305
_cell_length_b 15.0499079855
_cell_length_c 8.3785734266
_cell_angle_alpha 90.0000000000
_cell_angle_beta 31.8791938874
_cell_angle_gamma 90.0000000000
_cell_volume 508.8093933742
_exptl_crystal_density_diffrn 0.8365821399
_total_energy -5672.2560317001
_electrostatic_energy 0.0000000000
_vdw_energy -41.0994001645
_bond_energy 0.0000000000
_angle_energy 0.0000000000
_stretch_bend_coupling_energy 0.0000000000
_torsion_energy 0.0000000000
_inversion_energy 0.0000000000
_last_operation minimize_crystal_energy
_last_operation_comment none
_symmetry_cell_setting monoclinic
_symmetry_space_group_name_H-M 'C 2/c'
_symmetry_Int_Tables_number 15
loop_
_symmetry_equiv_pos_site_id
_symmetry_equiv_pos_as_xyz
1 x,y,z
2 -x,y,-z+1/2
3 -x,-y,-z
4 x,-y,z+1/2
5 x+1/2,y+1/2,z
6 -x+1/2,y+1/2,-z+1/2
7 -x+1/2,-y+1/2,-z
8 x+1/2,-y+1/2,z+1/2
loop_
_atom_site_label
_atom_site_type_symbol
_atom_site_fract_x
_atom_site_fract_y
_atom_site_fract_z
_atom_site_fftype
_atom_site_charge
_atom_site_hybridization
C1_0 C 0.4594202905 0.1273943433 -0.4873360438 C4 -0.2673638110 SP3
H1_0 H 0.6640360132 0.0877976111 -0.6950058423 H 0.1423097670 UNKNOWN
H2_0 H 0.2900118186 0.1449657668 -0.4547028160 H 0.1423097670 UNKNOWN
H3_0 H 0.3231883183 0.0858785201 -0.2952635536 H 0.1423097670 UNKNOWN
O1_0 O 0.5968656052 0.2035505417 -0.5185035426 O2 -0.5855322470 SP3
H4_0 H 0.4115154067 0.2404309799 -0.3292450951 H 0.4259667570 UNKNOWN
#END
