#############################################
# Avant-garde Materials Simulation           
#############################################

data_g1521
_cell_length_a 7.6086319741
_cell_length_b 4.1602400384
_cell_length_c 13.6875912051
_cell_angle_alpha 90.0000000000
_cell_angle_beta 73.6839737098
_cell_angle_gamma 90.0000000000
_cell_volume 415.8144645710
_exptl_crystal_density_diffrn 1.0236797595
_total_energy -5689.9501668330
_electrostatic_energy 0.0000000000
_vdw_energy -50.5966911551
_bond_energy 0.0000000000
_angle_energy 0.0000000000
_stretch_bend_coupling_energy 0.0000000000
_torsion_energy 0.0000000000
_inversion_energy 0.0000000000
_last_operation minimize_crystal_energy
_last_operation_comment none
_symmetry_cell_setting monoclinic
_symmetry_space_group_name_H-M 'C 2'
_symmetry_Int_Tables_number 5
loop_
_symmetry_equiv_pos_site_id
_symmetry_equiv_pos_as_xyz
1 x,y,z
2 -x,y,-z
3 x+1/2,y+1/2,z
4 -x+1/2,y+1/2,-z
loop_
_atom_site_label
_atom_site_type_symbol
_atom_site_fract_x
_atom_site_fract_y
_atom_site_fract_z
_atom_site_fftype
_atom_site_charge
_atom_site_hybridization
C1_0 C -0.2569610595 0.8324111670 -0.3848695483 C4 -0.2673638110 SP3
H1_0 H -0.1576798923 0.7626569683 -0.4572388742 H 0.1423097670 UNKNOWN
H2_0 H -0.2329595807 1.0844453026 -0.3679330368 H 0.1423097670 UNKNOWN
H3_0 H -0.3959921560 0.8118331699 -0.3933110449 H 0.1423097670 UNKNOWN
O1_0 O -0.2418650892 0.6239558936 -0.3041927577 O2 -0.5855322470 SP3
H4_0 H -0.1624598625 0.7286600761 -0.2648874459 H 0.4259667570 UNKNOWN
H4_1 H -0.4274905567 0.4797166690 -0.2351040194 H 0.4259667570 UNKNOWN
O1_1 O -0.5471377816 0.3763954657 -0.1959178474 O2 -0.5855322470 SP3
C1_1 C -0.6434224586 0.5848967326 -0.1152100957 C4 -0.2673638110 SP3
H1_1 H -0.6150595754 0.5182111285 -0.0431571621 H 0.1423097670 UNKNOWN
H2_1 H -0.7911707223 0.5608332718 -0.1056553916 H 0.1423097670 UNKNOWN
H3_1 H -0.6042737730 0.8374591616 -0.1327880400 H 0.1423097670 UNKNOWN
#END
