#############################################
# Avant-garde Materials Simulation           
#############################################

data_g19
_cell_length_a 14.1870081270
_cell_length_b 4.3446476788
_cell_length_c 6.9651711154
_cell_angle_alpha 90.0000000000
_cell_angle_beta 100.7137523311
_cell_angle_gamma 90.0000000000
_cell_volume 421.8323456595
_exptl_crystal_density_diffrn 1.0090758935
_total_energy -5684.7538581448
_electrostatic_energy 0.0000000000
_vdw_energy -50.1041542253
_bond_energy 0.0000000000
_angle_energy 0.0000000000
_stretch_bend_coupling_energy 0.0000000000
_torsion_energy 0.0000000000
_inversion_energy 0.0000000000
_last_operation minimize_crystal_energy
_last_operation_comment none
_symmetry_cell_setting monoclinic
_symmetry_space_group_name_H-M 'C 2/c'
_symmetry_Int_Tables_number 15
loop_
_symmetry_equiv_pos_site_id
_symmetry_equiv_pos_as_xyz
1 x,y,z
2 -x,y,-z+1/2
3 -x,-y,-z
4 x,-y,z+1/2
5 x+1/2,y+1/2,z
6 -x+1/2,y+1/2,-z+1/2
7 -x+1/2,-y+1/2,-z
8 x+1/2,-y+1/2,z+1/2
loop_
_atom_site_label
_atom_site_type_symbol
_atom_site_fract_x
_atom_site_fract_y
_atom_site_fract_z
_atom_site_fftype
_atom_site_charge
_atom_site_hybridization
C1_0 C 0.3813460770 0.7505305812 0.9133927689 C4 -0.2673638110 SP3
H1_0 H 0.3973251763 0.5204573696 0.9761857126 H 0.1423097670 UNKNOWN
H2_0 H 0.3651313979 0.9038552070 1.0286110328 H 0.1423097670 UNKNOWN
H3_0 H 0.4452589072 0.8382804645 0.8618015500 H 0.1423097670 UNKNOWN
O1_0 O 0.3014554832 0.7287760310 0.7545310932 O2 -0.5855322470 SP3
H4_0 H 0.2624028356 0.9247377324 0.7486411364 H 0.4259667570 UNKNOWN
#END
