#############################################
# Avant-garde Materials Simulation           
#############################################

data_g137
_cell_length_a 6.5908242600
_cell_length_b 6.5908242600
_cell_length_c 9.7242649000
_cell_angle_alpha 90.0000000000
_cell_angle_beta 90.0000000000
_cell_angle_gamma 90.0000000000
_cell_volume 422.4119970588
_exptl_crystal_density_diffrn 1.0076911973
_total_energy -5685.9300081987
_electrostatic_energy 0.0000000000
_vdw_energy -49.0298742131
_bond_energy 0.0000000000
_angle_energy 0.0000000000
_stretch_bend_coupling_energy 0.0000000000
_torsion_energy 0.0000000000
_inversion_energy 0.0000000000
_last_operation minimize_crystal_energy
_last_operation_comment none
_symmetry_cell_setting tetragonal
_symmetry_space_group_name_H-M 'I -4'
_symmetry_Int_Tables_number 82
loop_
_symmetry_equiv_pos_site_id
_symmetry_equiv_pos_as_xyz
1 x,y,z
2 -x,-y,z
3 y,-x,-z
4 -y,x,-z
5 x+1/2,y+1/2,z+1/2
6 -x+1/2,-y+1/2,z+1/2
7 y+1/2,-x+1/2,-z+1/2
8 -y+1/2,x+1/2,-z+1/2
loop_
_atom_site_label
_atom_site_type_symbol
_atom_site_fract_x
_atom_site_fract_y
_atom_site_fract_z
_atom_site_fftype
_atom_site_charge
_atom_site_hybridization
C1_0 C 0.2842449072 1.2108589158 0.8756965741 C4 -0.2673638110 SP3
H1_0 H 0.4491176029 1.2337443105 0.8755780432 H 0.1423097670 UNKNOWN
H2_0 H 0.2524970937 1.0469730609 0.8766273241 H 0.1423097670 UNKNOWN
H3_0 H 0.2206561382 1.2795113612 0.9694773397 H 0.1423097670 UNKNOWN
O1_0 O 0.2049307316 1.3033906229 0.7531516976 O2 -0.5855322470 SP3
H4_0 H 0.0531927903 1.2836962852 0.7509675723 H 0.4259667570 UNKNOWN
#END
