#############################################
# Avant-garde Materials Simulation           
#############################################

data_g376
_cell_length_a 6.4501270232
_cell_length_b 4.3519233853
_cell_length_c 7.4238951649
_cell_angle_alpha 90.0000000000
_cell_angle_beta 91.4587375147
_cell_angle_gamma 90.0000000000
_cell_volume 208.3246058567
_exptl_crystal_density_diffrn 1.0216288406
_total_energy -2843.0096425108
_electrostatic_energy 0.0000000000
_vdw_energy -25.2157155428
_bond_energy 0.0000000000
_angle_energy 0.0000000000
_stretch_bend_coupling_energy 0.0000000000
_torsion_energy 0.0000000000
_inversion_energy 0.0000000000
_last_operation minimize_crystal_energy
_last_operation_comment none
_symmetry_cell_setting monoclinic
_symmetry_space_group_name_H-M 'P 2_1/c'
_symmetry_Int_Tables_number 14
loop_
_symmetry_equiv_pos_site_id
_symmetry_equiv_pos_as_xyz
1 x,y,z
2 -x,y+1/2,-z+1/2
3 -x,-y,-z
4 x,-y+1/2,z+1/2
loop_
_atom_site_label
_atom_site_type_symbol
_atom_site_fract_x
_atom_site_fract_y
_atom_site_fract_z
_atom_site_fftype
_atom_site_charge
_atom_site_hybridization
C1_0 C -0.7689442304 0.4892740712 0.8737415476 C4 -0.2673638110 SP3
H1_0 H -0.7757664854 0.7080554998 0.9473743266 H 0.1423097670 UNKNOWN
H2_0 H -0.7342626836 0.3054187710 0.9716184621 H 0.1423097670 UNKNOWN
H3_0 H -0.9210627471 0.4441944239 0.8082100115 H 0.1423097670 UNKNOWN
O1_0 O -0.6114127595 0.5075938856 0.7408682507 O2 -0.5855322470 SP3
H4_0 H -0.5266957982 0.3116660161 0.7459919823 H 0.4259667570 UNKNOWN
#END
