#############################################
# Avant-garde Materials Simulation           
#############################################

data_g999
_cell_length_a 7.0862363331
_cell_length_b 4.1416076145
_cell_length_c 7.3293877317
_cell_angle_alpha 90.0000000000
_cell_angle_beta 73.8037357086
_cell_angle_gamma 90.0000000000
_cell_volume 206.5687295729
_exptl_crystal_density_diffrn 1.0303128938
_total_energy -2838.0855115294
_electrostatic_energy 0.0000000000
_vdw_energy -25.4428189958
_bond_energy 0.0000000000
_angle_energy 0.0000000000
_stretch_bend_coupling_energy 0.0000000000
_torsion_energy 0.0000000000
_inversion_energy 0.0000000000
_last_operation minimize_crystal_energy
_last_operation_comment none
_symmetry_cell_setting monoclinic
_symmetry_space_group_name_H-M 'P 2_1'
_symmetry_Int_Tables_number 4
loop_
_symmetry_equiv_pos_site_id
_symmetry_equiv_pos_as_xyz
1 x,y,z
2 -x,y+1/2,-z
loop_
_atom_site_label
_atom_site_type_symbol
_atom_site_fract_x
_atom_site_fract_y
_atom_site_fract_z
_atom_site_fftype
_atom_site_charge
_atom_site_hybridization
C1_0 C -0.7024757630 0.2948628176 0.8937408296 C4 -0.2673638110 SP3
H1_0 H -0.6358894991 0.4778752200 0.9649362552 H 0.1423097670 UNKNOWN
H2_0 H -0.7164103953 0.3904982076 0.7581027599 H 0.1423097670 UNKNOWN
H3_0 H -0.6072148484 0.0819074995 0.8655964238 H 0.1423097670 UNKNOWN
O1_0 O -0.8914262918 0.1994942572 1.0152737505 O2 -0.5855322470 SP3
H4_0 H -0.9817835453 0.3907183185 1.0272774524 H 0.4259667570 UNKNOWN
H4_1 H -0.8356917656 -0.0152706046 1.2113750527 H 0.4259667570 UNKNOWN
O1_1 O -0.7810551946 -0.1699177279 1.2854081815 O2 -0.5855322470 SP3
C1_1 C -0.7578870882 -0.0063857593 1.4494656169 C4 -0.2673638110 SP3
H1_1 H -0.6745742196 0.2206440163 1.4113737666 H 0.1423097670 UNKNOWN
H2_1 H -0.6749289500 -0.1674989942 1.5180966125 H 0.1423097670 UNKNOWN
H3_1 H -0.9003862324 0.0502101242 1.5523681393 H 0.1423097670 UNKNOWN
#END
