#############################################
# Avant-garde Materials Simulation           
#############################################

data_g292
_cell_length_a 10.8007665599
_cell_length_b 10.8007665599
_cell_length_c 4.1149622554
_cell_angle_alpha 90.0000000000
_cell_angle_beta 90.0000000000
_cell_angle_gamma 90.0000000000
_cell_volume 480.0373341697
_exptl_crystal_density_diffrn 0.8867244708
_total_energy -5679.4158339124
_electrostatic_energy 0.0000000000
_vdw_energy -44.0524057260
_bond_energy 0.0000000000
_angle_energy 0.0000000000
_stretch_bend_coupling_energy 0.0000000000
_torsion_energy 0.0000000000
_inversion_energy 0.0000000000
_last_operation minimize_crystal_energy
_last_operation_comment none
_symmetry_cell_setting tetragonal
_symmetry_space_group_name_H-M 'I 4_1'
_symmetry_Int_Tables_number 80
loop_
_symmetry_equiv_pos_site_id
_symmetry_equiv_pos_as_xyz
1 x,y,z
2 -x+1/2,-y+1/2,z+1/2
3 -y,x+1/2,z+1/4
4 y+1/2,-x,z+3/4
5 x+1/2,y+1/2,z+1/2
6 -x,-y,z
7 -y+1/2,x,z+3/4
8 y,-x+1/2,z+1/4
loop_
_atom_site_label
_atom_site_type_symbol
_atom_site_fract_x
_atom_site_fract_y
_atom_site_fract_z
_atom_site_fftype
_atom_site_charge
_atom_site_hybridization
C1_0 C 0.5047369404 -0.1748630005 1.0023303385 C4 -0.2673638110 SP3
H1_0 H 0.4476088053 -0.2419777442 0.8698107970 H 0.1423097670 UNKNOWN
H2_0 H 0.5514909154 -0.1149883806 0.8239015651 H 0.1423097670 UNKNOWN
H3_0 H 0.4440877490 -0.1177056376 1.1570973740 H 0.1423097670 UNKNOWN
O1_0 O 0.5919107484 -0.2419956244 1.1965261783 O2 -0.5855322470 SP3
H4_0 H 0.6532538512 -0.1806594820 1.2885418988 H 0.4259667570 UNKNOWN
#END
