#############################################
# Avant-garde Materials Simulation           
#############################################

data_g995
_cell_length_a 7.0530964838
_cell_length_b 4.2433555459
_cell_length_c 7.2051142817
_cell_angle_alpha 90.0000000000
_cell_angle_beta 99.7563238404
_cell_angle_gamma 90.0000000000
_cell_volume 212.5216670089
_exptl_crystal_density_diffrn 1.0014528332
_total_energy -2836.4231642081
_electrostatic_energy 0.0000000000
_vdw_energy -24.5920270941
_bond_energy 0.0000000000
_angle_energy 0.0000000000
_stretch_bend_coupling_energy 0.0000000000
_torsion_energy 0.0000000000
_inversion_energy 0.0000000000
_last_operation minimize_crystal_energy
_last_operation_comment none
_symmetry_cell_setting monoclinic
_symmetry_space_group_name_H-M 'P 2_1'
_symmetry_Int_Tables_number 4
loop_
_symmetry_equiv_pos_site_id
_symmetry_equiv_pos_as_xyz
1 x,y,z
2 -x,y+1/2,-z
loop_
_atom_site_label
_atom_site_type_symbol
_atom_site_fract_x
_atom_site_fract_y
_atom_site_fract_z
_atom_site_fftype
_atom_site_charge
_atom_site_hybridization
C1_0 C -0.7521332596 0.1787066769 0.5602394196 C4 -0.2673638110 SP3
H1_0 H -0.6985185574 0.3767161531 0.6527277560 H 0.1423097670 UNKNOWN
H2_0 H -0.6349821436 0.0041556543 0.5663230567 H 0.1423097670 UNKNOWN
H3_0 H -0.8749246204 0.0697214581 0.6126027742 H 0.1423097670 UNKNOWN
O1_0 O -0.8075328389 0.3047647457 0.3750260189 O2 -0.5855322470 SP3
H4_0 H -0.8576349940 0.1313926515 0.2899589660 H 0.4259667570 UNKNOWN
H2_1 H -0.7061764511 -0.2459352049 0.8980251138 H 0.1423097670 UNKNOWN
C1_1 C -0.7102285616 -0.1759930541 1.0444608219 C4 -0.2673638110 SP3
H1_1 H -0.6200407069 0.0332293247 1.0792552165 H 0.1423097670 UNKNOWN
H3_1 H -0.6556589563 -0.3673653022 1.1419741781 H 0.1423097670 UNKNOWN
O1_1 O -0.9024442130 -0.0941637375 1.0679849532 O2 -0.5855322470 SP3
H4_1 H -0.9851585833 -0.2861680411 1.0346305900 H 0.4259667570 UNKNOWN
#END
