#############################################
# Avant-garde Materials Simulation           
#############################################

data_g580
_cell_length_a 15.2536271784
_cell_length_b 6.6579247028
_cell_length_c 4.5860181938
_cell_angle_alpha 90.0000000000
_cell_angle_beta 90.0000000000
_cell_angle_gamma 90.0000000000
_cell_volume 465.7445482140
_exptl_crystal_density_diffrn 0.9139363042
_total_energy -5671.3847834790
_electrostatic_energy 0.0000000000
_vdw_energy -43.5661417411
_bond_energy 0.0000000000
_angle_energy 0.0000000000
_stretch_bend_coupling_energy 0.0000000000
_torsion_energy 0.0000000000
_inversion_energy 0.0000000000
_last_operation minimize_crystal_energy
_last_operation_comment none
_symmetry_cell_setting orthorhombic
_symmetry_space_group_name_H-M 'F m m 2'
_symmetry_Int_Tables_number 42
loop_
_symmetry_equiv_pos_site_id
_symmetry_equiv_pos_as_xyz
1 x,y,z
2 -x,-y,z
3 x,-y,z
4 -x,y,z
5 x,y+1/2,z+1/2
6 -x,-y+1/2,z+1/2
7 x,-y+1/2,z+1/2
8 -x,y+1/2,z+1/2
9 x+1/2,y,z+1/2
10 -x+1/2,-y,z+1/2
11 x+1/2,-y,z+1/2
12 -x+1/2,y,z+1/2
13 x+1/2,y+1/2,z
14 -x+1/2,-y+1/2,z
15 x+1/2,-y+1/2,z
16 -x+1/2,y+1/2,z
loop_
_atom_site_label
_atom_site_type_symbol
_atom_site_fract_x
_atom_site_fract_y
_atom_site_fract_z
_atom_site_fftype
_atom_site_charge
_atom_site_hybridization
C1_0 C -0.3825106781 -0.0000000000 -0.0692681414 C4 -0.2673638110 SP3
H1_0 H -0.4031641666 0.1346553119 0.0534080405 H 0.1423097670 UNKNOWN
H3_0 H -0.4167330128 -0.0000000000 -0.2802096558 H 0.1423097670 UNKNOWN
O1_0 O -0.2911424892 -0.0000000000 -0.1243196377 O2 -0.5855322470 SP3
H4_0 H -0.2581888913 -0.0000000000 0.0654308458 H 0.4259667570 UNKNOWN
#END
