#############################################
# Avant-garde Materials Simulation           
#############################################

data_g2188
_cell_length_a 4.3430449865
_cell_length_b 25.8608218429
_cell_length_c 4.3315449736
_cell_angle_alpha 90.0000000000
_cell_angle_beta 59.9960909897
_cell_angle_gamma 90.0000000000
_cell_volume 421.3014965931
_exptl_crystal_density_diffrn 1.0103473511
_total_energy -5688.0450799023
_electrostatic_energy 0.0000000000
_vdw_energy -49.9798211360
_bond_energy 0.0000000000
_angle_energy 0.0000000000
_stretch_bend_coupling_energy 0.0000000000
_torsion_energy 0.0000000000
_inversion_energy 0.0000000000
_last_operation minimize_crystal_energy
_last_operation_comment none
_symmetry_cell_setting monoclinic
_symmetry_space_group_name_H-M 'C c'
_symmetry_Int_Tables_number 9
loop_
_symmetry_equiv_pos_site_id
_symmetry_equiv_pos_as_xyz
1 x,y,z
2 x,-y,z+1/2
3 x+1/2,y+1/2,z
4 x+1/2,-y+1/2,z+1/2
loop_
_atom_site_label
_atom_site_type_symbol
_atom_site_fract_x
_atom_site_fract_y
_atom_site_fract_z
_atom_site_fftype
_atom_site_charge
_atom_site_hybridization
C1_0 C -0.4611229202 0.0666711690 -0.0956114321 C4 -0.2673638110 SP3
H1_0 H -0.3394344970 0.0718849731 -0.3852246325 H 0.1423097670 UNKNOWN
H2_0 H -0.2521331505 0.0552137265 -0.0364525072 H 0.1423097670 UNKNOWN
H3_0 H -0.5762202800 0.1037744485 0.0373361989 H 0.1423097670 UNKNOWN
O1_0 O -0.7322835275 0.0278059149 0.0188965890 O2 -0.5855322470 SP3
H4_0 H -0.7337961666 0.0069726577 0.2176562526 H 0.4259667570 UNKNOWN
H4_1 H -0.4465524520 0.2570709471 0.4847457554 H 0.4259667570 UNKNOWN
O1_1 O -0.2487847620 0.2777008748 0.2852515547 O2 -0.5855322470 SP3
C1_1 C -0.4023622564 0.3157692408 0.1612660162 C4 -0.2673638110 SP3
H1_1 H -0.2487646900 0.3171085137 -0.1314862251 H 0.1423097670 UNKNOWN
H2_1 H -0.3950411508 0.3542009874 0.2670762450 H 0.1423097670 UNKNOWN
H3_1 H -0.6791640973 0.3059852626 0.2429821205 H 0.1423097670 UNKNOWN
#END
