#############################################
# Avant-garde Materials Simulation           
#############################################

data_g981
_cell_length_a 6.3991169990
_cell_length_b 4.8704248983
_cell_length_c 6.7057331626
_cell_angle_alpha 95.7152512222
_cell_angle_beta 92.9006097681
_cell_angle_gamma 77.1409317589
_cell_volume 202.6522337950
_exptl_crystal_density_diffrn 1.0502249176
_total_energy -2841.4319470316
_electrostatic_energy 0.0000000000
_vdw_energy -26.1148943746
_bond_energy 0.0000000000
_angle_energy 0.0000000000
_stretch_bend_coupling_energy 0.0000000000
_torsion_energy 0.0000000000
_inversion_energy 0.0000000000
_last_operation minimize_crystal_energy
_last_operation_comment none
_symmetry_cell_setting triclinic
_symmetry_space_group_name_H-M 'P -1'
_symmetry_Int_Tables_number 2
loop_
_symmetry_equiv_pos_site_id
_symmetry_equiv_pos_as_xyz
1 x,y,z
2 -x,-y,-z
loop_
_atom_site_label
_atom_site_type_symbol
_atom_site_fract_x
_atom_site_fract_y
_atom_site_fract_z
_atom_site_fftype
_atom_site_charge
_atom_site_hybridization
C1_0 C 0.7453344440 -0.0343960099 0.8524965215 C4 -0.2673638110 SP3
H1_0 H 0.8445495778 -0.1850185585 0.9487249142 H 0.1423097670 UNKNOWN
H2_0 H 0.6483431929 -0.1458266655 0.7469760689 H 0.1423097670 UNKNOWN
H3_0 H 0.6364315889 0.1262512730 0.9482646175 H 0.1423097670 UNKNOWN
O1_0 O 0.8851224591 0.0942323540 0.7499360895 O2 -0.5855322470 SP3
H4_0 H 0.8140924348 0.1612405621 0.6211482276 H 0.4259667570 UNKNOWN
H3_1 H 0.6756355474 0.5199500574 1.1690497819 H 0.1423097670 UNKNOWN
C1_1 C 0.7254169633 0.5071345289 1.3282408783 C4 -0.2673638110 SP3
H1_1 H 0.8761263864 0.5803591082 1.3525216609 H 0.1423097670 UNKNOWN
H2_1 H 0.6015146476 0.6478162264 1.4200737177 H 0.1423097670 UNKNOWN
O1_1 O 0.7480168930 0.2247708024 1.3835509506 O2 -0.5855322470 SP3
H4_1 H 0.8810991576 0.1045631541 1.3198112833 H 0.4259667570 UNKNOWN
#END
