#############################################
# Avant-garde Materials Simulation           
#############################################

data_g889
_cell_length_a 27.5231843005
_cell_length_b 4.3468720596
_cell_length_c 7.4789488499
_cell_angle_alpha 90.0000000000
_cell_angle_beta 90.0000000000
_cell_angle_gamma 90.0000000000
_cell_volume 894.7796516332
_exptl_crystal_density_diffrn 0.9514316744
_total_energy -11372.7608508528
_electrostatic_energy 0.0000000000
_vdw_energy -94.2599433028
_bond_energy 0.0000000000
_angle_energy 0.0000000000
_stretch_bend_coupling_energy 0.0000000000
_torsion_energy 0.0000000000
_inversion_energy 0.0000000000
_last_operation minimize_crystal_energy
_last_operation_comment none
_symmetry_cell_setting orthorhombic
_symmetry_space_group_name_H-M 'F d d 2'
_symmetry_Int_Tables_number 43
loop_
_symmetry_equiv_pos_site_id
_symmetry_equiv_pos_as_xyz
1 x,y,z
2 -x,-y,z
3 x+1/4,-y+1/4,z+1/4
4 -x+1/4,y+1/4,z+1/4
5 x,y+1/2,z+1/2
6 -x,-y+1/2,z+1/2
7 x+1/4,-y+3/4,z+3/4
8 -x+1/4,y+3/4,z+3/4
9 x+1/2,y,z+1/2
10 -x+1/2,-y,z+1/2
11 x+3/4,-y+1/4,z+3/4
12 -x+3/4,y+1/4,z+3/4
13 x+1/2,y+1/2,z
14 -x+1/2,-y+1/2,z
15 x+3/4,-y+3/4,z+1/4
16 -x+3/4,y+3/4,z+1/4
loop_
_atom_site_label
_atom_site_type_symbol
_atom_site_fract_x
_atom_site_fract_y
_atom_site_fract_z
_atom_site_fftype
_atom_site_charge
_atom_site_hybridization
C1_0 C -0.1881147349 -0.4247665317 0.2947748630 C4 -0.2673638110 SP3
H1_0 H -0.2229722017 -0.5493902583 0.3022459176 H 0.1423097670 UNKNOWN
H2_0 H -0.1927837169 -0.2220755012 0.2086965991 H 0.1423097670 UNKNOWN
H3_0 H -0.1780241888 -0.3463764713 0.4295954446 H 0.1423097670 UNKNOWN
O1_0 O -0.1511340790 -0.6177080311 0.2194400738 O2 -0.5855322470 SP3
H4_0 H -0.1318948117 -0.7170308427 0.3194782619 H 0.4259667570 UNKNOWN
#END
