#############################################
# Avant-garde Materials Simulation           
#############################################

data_g273
_cell_length_a 4.9433954568
_cell_length_b 9.5883355320
_cell_length_c 4.4163272305
_cell_angle_alpha 90.0000000000
_cell_angle_beta 91.0222267453
_cell_angle_gamma 90.0000000000
_cell_volume 209.2958894507
_exptl_crystal_density_diffrn 1.0168877473
_total_energy -2844.6739550943
_electrostatic_energy 0.0000000000
_vdw_energy -24.8814755146
_bond_energy 0.0000000000
_angle_energy 0.0000000000
_stretch_bend_coupling_energy 0.0000000000
_torsion_energy 0.0000000000
_inversion_energy 0.0000000000
_last_operation minimize_crystal_energy
_last_operation_comment none
_symmetry_cell_setting monoclinic
_symmetry_space_group_name_H-M 'C c'
_symmetry_Int_Tables_number 9
loop_
_symmetry_equiv_pos_site_id
_symmetry_equiv_pos_as_xyz
1 x,y,z
2 x,-y,z+1/2
3 x+1/2,y+1/2,z
4 x+1/2,-y+1/2,z+1/2
loop_
_atom_site_label
_atom_site_type_symbol
_atom_site_fract_x
_atom_site_fract_y
_atom_site_fract_z
_atom_site_fftype
_atom_site_charge
_atom_site_hybridization
C1_0 C -0.1041368072 0.3441471513 -0.1467173136 C4 -0.2673638110 SP3
H1_0 H -0.1059229628 0.2738300219 0.0502186901 H 0.1423097670 UNKNOWN
H2_0 H -0.1122851183 0.2801470205 -0.3526761389 H 0.1423097670 UNKNOWN
H3_0 H -0.2857111670 0.4108034892 -0.1424183753 H 0.1423097670 UNKNOWN
O1_0 O 0.1405428845 0.4251573429 -0.1513105485 O2 -0.5855322470 SP3
H4_0 H 0.1502047409 0.4816584517 0.0418729581 H 0.4259667570 UNKNOWN
#END
