#############################################
# Avant-garde Materials Simulation           
#############################################

data_g212
_cell_length_a 7.0400282844
_cell_length_b 7.0400282844
_cell_length_c 4.3149625443
_cell_angle_alpha 90.0000000000
_cell_angle_beta 90.0000000000
_cell_angle_gamma 90.0000000000
_cell_volume 213.8581660498
_exptl_crystal_density_diffrn 0.9951942892
_total_energy -2842.9876101335
_electrostatic_energy 0.0000000000
_vdw_energy -24.6578113851
_bond_energy 0.0000000000
_angle_energy 0.0000000000
_stretch_bend_coupling_energy 0.0000000000
_torsion_energy 0.0000000000
_inversion_energy 0.0000000000
_last_operation minimize_crystal_energy
_last_operation_comment none
_symmetry_cell_setting tetragonal
_symmetry_space_group_name_H-M 'P 4_1'
_symmetry_Int_Tables_number 76
loop_
_symmetry_equiv_pos_site_id
_symmetry_equiv_pos_as_xyz
1 x,y,z
2 -x,-y,z+1/2
3 -y,x,z+1/4
4 y,-x,z+3/4
loop_
_atom_site_label
_atom_site_type_symbol
_atom_site_fract_x
_atom_site_fract_y
_atom_site_fract_z
_atom_site_fftype
_atom_site_charge
_atom_site_hybridization
C1_0 C -0.8058638075 0.3307107508 -0.1052181039 C4 -0.2673638110 SP3
H1_0 H -0.6722635478 0.3116129893 -0.2326435471 H 0.1423097670 UNKNOWN
H2_0 H -0.7980604139 0.4640300524 0.0276803897 H 0.1423097670 UNKNOWN
H3_0 H -0.9222539831 0.3410675311 -0.2749649174 H 0.1423097670 UNKNOWN
O1_0 O -0.8299767952 0.1705673918 0.0965206004 O2 -0.5855322470 SP3
H4_0 H -0.9611999843 0.1774020858 0.1911163149 H 0.4259667570 UNKNOWN
#END
