#############################################
# Avant-garde Materials Simulation           
#############################################

data_g1364
_cell_length_a 14.6433681181
_cell_length_b 4.7113214665
_cell_length_c 10.9552718540
_cell_angle_alpha 90.0000000000
_cell_angle_beta 144.3333255532
_cell_angle_gamma 90.0000000000
_cell_volume 440.6833676379
_exptl_crystal_density_diffrn 0.9659108611
_total_energy -5683.9533401651
_electrostatic_energy 0.0000000000
_vdw_energy -46.6070251832
_bond_energy 0.0000000000
_angle_energy 0.0000000000
_stretch_bend_coupling_energy 0.0000000000
_torsion_energy 0.0000000000
_inversion_energy 0.0000000000
_last_operation minimize_crystal_energy
_last_operation_comment none
_symmetry_cell_setting monoclinic
_symmetry_space_group_name_H-M 'C c'
_symmetry_Int_Tables_number 9
loop_
_symmetry_equiv_pos_site_id
_symmetry_equiv_pos_as_xyz
1 x,y,z
2 x,-y,z+1/2
3 x+1/2,y+1/2,z
4 x+1/2,-y+1/2,z+1/2
loop_
_atom_site_label
_atom_site_type_symbol
_atom_site_fract_x
_atom_site_fract_y
_atom_site_fract_z
_atom_site_fftype
_atom_site_charge
_atom_site_hybridization
C1_0 C -0.2241907324 0.9131130162 -0.4342429992 C4 -0.2673638110 SP3
H1_0 H -0.1175439454 0.8009200844 -0.3469159163 H 0.1423097670 UNKNOWN
H2_0 H -0.2979919799 0.9480891530 -0.5953965119 H 0.1423097670 UNKNOWN
H3_0 H -0.2873025994 0.7758888676 -0.4382619733 H 0.1423097670 UNKNOWN
O1_0 O -0.1796795458 1.1772334835 -0.3308773640 O2 -0.5855322470 SP3
H4_0 H -0.2672623415 1.2430640475 -0.3710234690 H 0.4259667570 UNKNOWN
H2_1 H 0.0301972932 1.0344043932 -0.3347080258 H 0.1423097670 UNKNOWN
C1_1 C 0.1068556670 1.0613840642 -0.3315029937 C4 -0.2673638110 SP3
H1_1 H 0.2285016975 1.0713443314 -0.1672857125 H 0.1423097670 UNKNOWN
H3_1 H 0.0777508419 1.2646354631 -0.4074051639 H 0.1423097670 UNKNOWN
O1_1 O 0.0931353618 0.8258537250 -0.4284302467 O2 -0.5855322470 SP3
H4_1 H -0.0147549372 0.8268962566 -0.5839804833 H 0.4259667570 UNKNOWN
#END
