#############################################
# Avant-garde Materials Simulation           
#############################################

data_g844
_cell_length_a 4.3375584509
_cell_length_b 15.2524630948
_cell_length_c 7.1182322577
_cell_angle_alpha 90.0000000000
_cell_angle_beta 90.0000000000
_cell_angle_gamma 90.0000000000
_cell_volume 470.9312142898
_exptl_crystal_density_diffrn 0.9038705403
_total_energy -5682.9215730223
_electrostatic_energy 0.0000000000
_vdw_energy -45.7210280164
_bond_energy 0.0000000000
_angle_energy 0.0000000000
_stretch_bend_coupling_energy 0.0000000000
_torsion_energy 0.0000000000
_inversion_energy 0.0000000000
_last_operation minimize_crystal_energy
_last_operation_comment none
_symmetry_cell_setting orthorhombic
_symmetry_space_group_name_H-M 'A e a 2'
_symmetry_Int_Tables_number 41
loop_
_symmetry_equiv_pos_site_id
_symmetry_equiv_pos_as_xyz
1 x,y,z
2 -x,-y,z
3 x+1/2,-y+1/2,z
4 -x+1/2,y+1/2,z
5 x,y+1/2,z+1/2
6 -x,-y+1/2,z+1/2
7 x+1/2,-y,z+1/2
8 -x+1/2,y,z+1/2
loop_
_atom_site_label
_atom_site_type_symbol
_atom_site_fract_x
_atom_site_fract_y
_atom_site_fract_z
_atom_site_fftype
_atom_site_charge
_atom_site_hybridization
C1_0 C 0.4826801599 0.1319464697 0.6031679719 C4 -0.2673638110 SP3
H1_0 H 0.3177381969 0.1475536879 0.4906953537 H 0.1423097670 UNKNOWN
H2_0 H 0.4044957010 0.0722685327 0.6766914039 H 0.1423097670 UNKNOWN
H3_0 H 0.7090001133 0.1193433826 0.5394316765 H 0.1423097670 UNKNOWN
O1_0 O 0.5105692114 0.2034689664 0.7325370444 O2 -0.5855322470 SP3
H4_0 H 0.3141634951 0.2395467216 0.7294433501 H 0.4259667570 UNKNOWN
#END
