#############################################
# Avant-garde Materials Simulation           
#############################################

data_g2040
_cell_length_a 4.8119797583
_cell_length_b 13.0702618096
_cell_length_c 7.3279992043
_cell_angle_alpha 90.0000000000
_cell_angle_beta 108.8044013226
_cell_angle_gamma 90.0000000000
_cell_volume 436.2859561808
_exptl_crystal_density_diffrn 0.9756464655
_total_energy -5683.2032991932
_electrostatic_energy 0.0000000000
_vdw_energy -47.5154455463
_bond_energy 0.0000000000
_angle_energy 0.0000000000
_stretch_bend_coupling_energy 0.0000000000
_torsion_energy 0.0000000000
_inversion_energy 0.0000000000
_last_operation minimize_crystal_energy
_last_operation_comment none
_symmetry_cell_setting monoclinic
_symmetry_space_group_name_H-M 'C c'
_symmetry_Int_Tables_number 9
loop_
_symmetry_equiv_pos_site_id
_symmetry_equiv_pos_as_xyz
1 x,y,z
2 x,-y,z+1/2
3 x+1/2,y+1/2,z
4 x+1/2,-y+1/2,z+1/2
loop_
_atom_site_label
_atom_site_type_symbol
_atom_site_fract_x
_atom_site_fract_y
_atom_site_fract_z
_atom_site_fftype
_atom_site_charge
_atom_site_hybridization
C1_0 C -0.4554143910 -0.3652385757 0.3570140980 C4 -0.2673638110 SP3
H1_0 H -0.4561871293 -0.4463497476 0.3159933453 H 0.1423097670 UNKNOWN
H2_0 H -0.6307820872 -0.3256787823 0.2451219270 H 0.1423097670 UNKNOWN
H3_0 H -0.5034610583 -0.3601935137 0.4936303846 H 0.1423097670 UNKNOWN
O1_0 O -0.1810493284 -0.3174353227 0.3698244004 O2 -0.5855322470 SP3
H4_0 H -0.0343357163 -0.3343682151 0.4991175348 H 0.4259667570 UNKNOWN
H3_1 H -0.7829214552 -0.4468927858 -0.0340684838 H 0.1423097670 UNKNOWN
C1_1 C -0.9426317330 -0.4250691581 -0.1735468602 C4 -0.2673638110 SP3
H1_1 H -1.0254614234 -0.4953582790 -0.2547023368 H 0.1423097670 UNKNOWN
H2_1 H -1.1278249071 -0.3847612012 -0.1476770716 H 0.1423097670 UNKNOWN
O1_1 O -0.8070919332 -0.3642910808 -0.2845255650 O2 -0.5855322470 SP3
H4_1 H -0.7401990971 -0.2975416682 -0.2147279937 H 0.4259667570 UNKNOWN
#END
