#############################################
# Avant-garde Materials Simulation           
#############################################

data_g112
_cell_length_a 9.4894008721
_cell_length_b 9.4894008721
_cell_length_c 4.6899742396
_cell_angle_alpha 90.0000000000
_cell_angle_beta 90.0000000000
_cell_angle_gamma 90.0000000000
_cell_volume 422.3262189048
_exptl_crystal_density_diffrn 1.0078958683
_total_energy -5684.4081437426
_electrostatic_energy 0.0000000000
_vdw_energy -49.5272397711
_bond_energy 0.0000000000
_angle_energy 0.0000000000
_stretch_bend_coupling_energy 0.0000000000
_torsion_energy 0.0000000000
_inversion_energy 0.0000000000
_last_operation minimize_crystal_energy
_last_operation_comment none
_symmetry_cell_setting tetragonal
_symmetry_space_group_name_H-M 'I 4'
_symmetry_Int_Tables_number 79
loop_
_symmetry_equiv_pos_site_id
_symmetry_equiv_pos_as_xyz
1 x,y,z
2 -x,-y,z
3 -y,x,z
4 y,-x,z
5 x+1/2,y+1/2,z+1/2
6 -x+1/2,-y+1/2,z+1/2
7 -y+1/2,x+1/2,z+1/2
8 y+1/2,-x+1/2,z+1/2
loop_
_atom_site_label
_atom_site_type_symbol
_atom_site_fract_x
_atom_site_fract_y
_atom_site_fract_z
_atom_site_fftype
_atom_site_charge
_atom_site_hybridization
C1_0 C 0.5633917019 0.2177799473 1.0212634473 C4 -0.2673638110 SP3
H1_0 H 0.6671623740 0.1665513270 1.0345266872 H 0.1423097670 UNKNOWN
H2_0 H 0.5565227955 0.2768921138 0.8195640694 H 0.1423097670 UNKNOWN
H3_0 H 0.4817152714 0.1358646389 1.0199288551 H 0.1423097670 UNKNOWN
O1_0 O 0.5385262034 0.3059992410 1.2652469516 O2 -0.5855322470 SP3
H4_0 H 0.6068303049 0.3872593323 1.2605880367 H 0.4259667570 UNKNOWN
#END
