#############################################
# Avant-garde Materials Simulation           
#############################################

data_g2119
_cell_length_a 6.6845275807
_cell_length_b 16.1823993813
_cell_length_c 6.0780746656
_cell_angle_alpha 90.0000000000
_cell_angle_beta 139.7668222898
_cell_angle_gamma 90.0000000000
_cell_volume 424.6634253275
_exptl_crystal_density_diffrn 1.0023487442
_total_energy -5676.3084113684
_electrostatic_energy 0.0000000000
_vdw_energy -49.2501143833
_bond_energy 0.0000000000
_angle_energy 0.0000000000
_stretch_bend_coupling_energy 0.0000000000
_torsion_energy 0.0000000000
_inversion_energy 0.0000000000
_last_operation minimize_crystal_energy
_last_operation_comment none
_symmetry_cell_setting monoclinic
_symmetry_space_group_name_H-M 'C c'
_symmetry_Int_Tables_number 9
loop_
_symmetry_equiv_pos_site_id
_symmetry_equiv_pos_as_xyz
1 x,y,z
2 x,-y,z+1/2
3 x+1/2,y+1/2,z
4 x+1/2,-y+1/2,z+1/2
loop_
_atom_site_label
_atom_site_type_symbol
_atom_site_fract_x
_atom_site_fract_y
_atom_site_fract_z
_atom_site_fftype
_atom_site_charge
_atom_site_hybridization
C1_0 C -0.0352724911 0.3473883914 0.6168553058 C4 -0.2673638110 SP3
H1_0 H -0.0907160399 0.4097382600 0.5097969164 H 0.1423097670 UNKNOWN
H2_0 H 0.1693550385 0.3508325930 0.8951159231 H 0.1423097670 UNKNOWN
H3_0 H -0.2321692683 0.3242989317 0.5479662785 H 0.1423097670 UNKNOWN
O1_0 O 0.0305342814 0.2930517920 0.4883844586 O2 -0.5855322470 SP3
H4_0 H -0.1652699017 0.2619254045 0.2858402933 H 0.4259667570 UNKNOWN
H4_1 H 0.2037225176 0.3468845578 0.3997195054 H 0.4259667570 UNKNOWN
O1_1 O 0.3377348849 0.3782849509 0.4108212541 O2 -0.5855322470 SP3
C1_1 C 0.5151394289 0.4341214400 0.6909309047 C4 -0.2673638110 SP3
H1_1 H 0.3792771791 0.4886373255 0.6279758287 H 0.1423097670 UNKNOWN
H2_1 H 0.7135480455 0.4550697707 0.7591786987 H 0.1423097670 UNKNOWN
H3_1 H 0.6083472836 0.4039312823 0.9176994467 H 0.1423097670 UNKNOWN
#END
