#############################################
# Avant-garde Materials Simulation           
#############################################

data_g468
_cell_length_a 13.7832687814
_cell_length_b 8.2198839088
_cell_length_c 4.4841277945
_cell_angle_alpha 90.0000000000
_cell_angle_beta 90.0000000000
_cell_angle_gamma 90.0000000000
_cell_volume 508.0376405106
_exptl_crystal_density_diffrn 0.8378529801
_total_energy -5673.5419943220
_electrostatic_energy 0.0000000000
_vdw_energy -41.0530221626
_bond_energy 0.0000000000
_angle_energy 0.0000000000
_stretch_bend_coupling_energy 0.0000000000
_torsion_energy 0.0000000000
_inversion_energy 0.0000000000
_last_operation minimize_crystal_energy
_last_operation_comment none
_symmetry_cell_setting orthorhombic
_symmetry_space_group_name_H-M 'I b a 2'
_symmetry_Int_Tables_number 45
loop_
_symmetry_equiv_pos_site_id
_symmetry_equiv_pos_as_xyz
1 x,y,z
2 -x,-y,z
3 x+1/2,-y+1/2,z
4 -x+1/2,y+1/2,z
5 x+1/2,y+1/2,z+1/2
6 -x+1/2,-y+1/2,z+1/2
7 x,-y,z+1/2
8 -x,y,z+1/2
loop_
_atom_site_label
_atom_site_type_symbol
_atom_site_fract_x
_atom_site_fract_y
_atom_site_fract_z
_atom_site_fftype
_atom_site_charge
_atom_site_hybridization
C1_0 C 0.3817390598 0.2034987113 0.9282112810 C4 -0.2673638110 SP3
H1_0 H 0.3406306029 0.1943817297 1.1374272588 H 0.1423097670 UNKNOWN
H2_0 H 0.4175655943 0.0853958583 0.8870952596 H 0.1423097670 UNKNOWN
H3_0 H 0.3300954246 0.2263214236 0.7449876300 H 0.1423097670 UNKNOWN
O1_0 O 0.4495409919 0.3331301972 0.9577395340 O2 -0.5855322470 SP3
H4_0 H 0.4878824736 0.3411329625 0.7667682300 H 0.4259667570 UNKNOWN
#END
