#############################################
# Avant-garde Materials Simulation           
#############################################

data_g282
_cell_length_a 14.4411451499
_cell_length_b 14.5017889377
_cell_length_c 4.2872154402
_cell_angle_alpha 90.0000000000
_cell_angle_beta 90.0000000000
_cell_angle_gamma 90.0000000000
_cell_volume 897.8391139231
_exptl_crystal_density_diffrn 0.9481895910
_total_energy -11367.7588340169
_electrostatic_energy 0.0000000000
_vdw_energy -91.0337472754
_bond_energy 0.0000000000
_angle_energy 0.0000000000
_stretch_bend_coupling_energy 0.0000000000
_torsion_energy 0.0000000000
_inversion_energy 0.0000000000
_last_operation minimize_crystal_energy
_last_operation_comment none
_symmetry_cell_setting orthorhombic
_symmetry_space_group_name_H-M 'F d d 2'
_symmetry_Int_Tables_number 43
loop_
_symmetry_equiv_pos_site_id
_symmetry_equiv_pos_as_xyz
1 x,y,z
2 -x,-y,z
3 x+1/4,-y+1/4,z+1/4
4 -x+1/4,y+1/4,z+1/4
5 x,y+1/2,z+1/2
6 -x,-y+1/2,z+1/2
7 x+1/4,-y+3/4,z+3/4
8 -x+1/4,y+3/4,z+3/4
9 x+1/2,y,z+1/2
10 -x+1/2,-y,z+1/2
11 x+3/4,-y+1/4,z+3/4
12 -x+3/4,y+1/4,z+3/4
13 x+1/2,y+1/2,z
14 -x+1/2,-y+1/2,z
15 x+3/4,-y+3/4,z+1/4
16 -x+3/4,y+3/4,z+1/4
loop_
_atom_site_label
_atom_site_type_symbol
_atom_site_fract_x
_atom_site_fract_y
_atom_site_fract_z
_atom_site_fftype
_atom_site_charge
_atom_site_hybridization
C1_0 C 0.2202545267 0.6347730051 -0.0650820697 C4 -0.2673638110 SP3
H1_0 H 0.2018281642 0.6613605885 -0.2968929839 H 0.1423097670 UNKNOWN
H2_0 H 0.2909524430 0.6577295394 -0.0081755740 H 0.1423097670 UNKNOWN
H3_0 H 0.1714923848 0.6645076180 0.1048644143 H 0.1423097670 UNKNOWN
O1_0 O 0.2131593024 0.5361491735 -0.0745094476 O2 -0.5855322470 SP3
H4_0 H 0.2401956715 0.5097231977 0.1244338146 H 0.4259667570 UNKNOWN
#END
