#############################################
# Avant-garde Materials Simulation           
#############################################

data_g719
_cell_length_a 5.1160458413
_cell_length_b 5.1160458413
_cell_length_c 8.3549132008
_cell_angle_alpha 90.0000000000
_cell_angle_beta 90.0000000000
_cell_angle_gamma 90.0000000000
_cell_volume 218.6808719246
_exptl_crystal_density_diffrn 0.9732466478
_total_energy -2843.4205942209
_electrostatic_energy 0.0000000000
_vdw_energy -23.9172616758
_bond_energy 0.0000000000
_angle_energy 0.0000000000
_stretch_bend_coupling_energy 0.0000000000
_torsion_energy 0.0000000000
_inversion_energy 0.0000000000
_last_operation minimize_crystal_energy
_last_operation_comment none
_symmetry_cell_setting tetragonal
_symmetry_space_group_name_H-M 'P 4_1'
_symmetry_Int_Tables_number 76
loop_
_symmetry_equiv_pos_site_id
_symmetry_equiv_pos_as_xyz
1 x,y,z
2 -x,-y,z+1/2
3 -y,x,z+1/4
4 y,-x,z+3/4
loop_
_atom_site_label
_atom_site_type_symbol
_atom_site_fract_x
_atom_site_fract_y
_atom_site_fract_z
_atom_site_fftype
_atom_site_charge
_atom_site_hybridization
C1_0 C -0.4872222152 0.0512018177 -0.1987583395 C4 -0.2673638110 SP3
H1_0 H -0.5072687280 0.2592072945 -0.1659609093 H 0.1423097670 UNKNOWN
H2_0 H -0.5828288533 -0.0679869102 -0.1066259505 H 0.1423097670 UNKNOWN
H3_0 H -0.5884641235 0.0184208683 -0.3132481757 H 0.1423097670 UNKNOWN
O1_0 O -0.2187319236 -0.0259973900 -0.2083229357 O2 -0.5855322470 SP3
H4_0 H -0.1344471514 0.0652177401 -0.3015849022 H 0.4259667570 UNKNOWN
#END
