#############################################
# Avant-garde Materials Simulation           
#############################################

data_g661
_cell_length_a 4.3732618446
_cell_length_b 12.6283420661
_cell_length_c 4.3442835077
_cell_angle_alpha 90.0000000000
_cell_angle_beta 59.3528117756
_cell_angle_gamma 90.0000000000
_cell_volume 206.4102480703
_exptl_crystal_density_diffrn 1.0311039667
_total_energy -2844.4271924259
_electrostatic_energy 0.0000000000
_vdw_energy -25.5014066972
_bond_energy 0.0000000000
_angle_energy 0.0000000000
_stretch_bend_coupling_energy 0.0000000000
_torsion_energy 0.0000000000
_inversion_energy 0.0000000000
_last_operation minimize_crystal_energy
_last_operation_comment none
_symmetry_cell_setting monoclinic
_symmetry_space_group_name_H-M 'P 2_1/c'
_symmetry_Int_Tables_number 14
loop_
_symmetry_equiv_pos_site_id
_symmetry_equiv_pos_as_xyz
1 x,y,z
2 -x,y+1/2,-z+1/2
3 -x,-y,-z
4 x,-y+1/2,z+1/2
loop_
_atom_site_label
_atom_site_type_symbol
_atom_site_fract_x
_atom_site_fract_y
_atom_site_fract_z
_atom_site_fftype
_atom_site_charge
_atom_site_hybridization
C1_0 C -0.7403213709 0.1148865185 0.4187550058 C4 -0.2673638110 SP3
H1_0 H -0.8709906233 0.1076696604 0.7111056232 H 0.1423097670 UNKNOWN
H2_0 H -0.6264669353 0.0374947169 0.2969689077 H 0.1423097670 UNKNOWN
H3_0 H -0.9417820216 0.1372375611 0.3505866603 H 0.1423097670 UNKNOWN
O1_0 O -0.4655799215 0.1934402770 0.2977074599 O2 -0.5855322470 SP3
H4_0 H -0.4631558168 0.2358129999 0.0984319977 H 0.4259667570 UNKNOWN
#END
