#############################################
# Avant-garde Materials Simulation           
#############################################

data_g1677
_cell_length_a 8.3752336246
_cell_length_b 13.5839174201
_cell_length_c 4.4230096023
_cell_angle_alpha 90.0000000000
_cell_angle_beta 58.0820806264
_cell_angle_gamma 90.0000000000
_cell_volume 427.1185942743
_exptl_crystal_density_diffrn 0.9965870294
_total_energy -5686.4160926891
_electrostatic_energy 0.0000000000
_vdw_energy -49.5479674224
_bond_energy 0.0000000000
_angle_energy 0.0000000000
_stretch_bend_coupling_energy 0.0000000000
_torsion_energy 0.0000000000
_inversion_energy 0.0000000000
_last_operation minimize_crystal_energy
_last_operation_comment none
_symmetry_cell_setting monoclinic
_symmetry_space_group_name_H-M 'C c'
_symmetry_Int_Tables_number 9
loop_
_symmetry_equiv_pos_site_id
_symmetry_equiv_pos_as_xyz
1 x,y,z
2 x,-y,z+1/2
3 x+1/2,y+1/2,z
4 x+1/2,-y+1/2,z+1/2
loop_
_atom_site_label
_atom_site_type_symbol
_atom_site_fract_x
_atom_site_fract_y
_atom_site_fract_z
_atom_site_fftype
_atom_site_charge
_atom_site_hybridization
C1_0 C 0.2763736190 0.3707566126 -0.2362183262 C4 -0.2673638110 SP3
H1_0 H 0.3669930966 0.3715718024 -0.1255033428 H 0.1423097670 UNKNOWN
H2_0 H 0.3659285672 0.3791991947 -0.5269264959 H 0.1423097670 UNKNOWN
H3_0 H 0.2026410442 0.2995251784 -0.1746882204 H 0.1423097670 UNKNOWN
O1_0 O 0.1426389463 0.4496071546 -0.0829725941 O2 -0.5855322470 SP3
H4_0 H 0.1436514454 0.4879955030 -0.2799971830 H 0.4259667570 UNKNOWN
H1_1 H 0.3669431761 0.1292642126 -0.0225213529 H 0.1423097670 UNKNOWN
C1_1 C 0.2760939389 0.1298257869 0.2696128579 C4 -0.2673638110 SP3
H2_1 H 0.3655010337 0.1217824209 0.3815286573 H 0.1423097670 UNKNOWN
H3_1 H 0.2013779695 0.2007956980 0.3562530431 H 0.1423097670 UNKNOWN
O1_1 O 0.1434563681 0.0505190008 0.3829000141 O2 -0.5855322470 SP3
H4_1 H 0.1446845303 0.0120895393 0.5775623623 H 0.4259667570 UNKNOWN
#END
