#############################################
# Avant-garde Materials Simulation           
#############################################

data_g2049
_cell_length_a 6.0857281827
_cell_length_b 21.0596300452
_cell_length_c 7.2339440523
_cell_angle_alpha 90.0000000000
_cell_angle_beta 142.0129430266
_cell_angle_gamma 90.0000000000
_cell_volume 570.6302794935
_exptl_crystal_density_diffrn 0.7459485877
_total_energy -5675.7032053879
_electrostatic_energy 0.0000000000
_vdw_energy -39.3900230937
_bond_energy 0.0000000000
_angle_energy 0.0000000000
_stretch_bend_coupling_energy 0.0000000000
_torsion_energy 0.0000000000
_inversion_energy 0.0000000000
_last_operation minimize_crystal_energy
_last_operation_comment none
_symmetry_cell_setting monoclinic
_symmetry_space_group_name_H-M 'C c'
_symmetry_Int_Tables_number 9
loop_
_symmetry_equiv_pos_site_id
_symmetry_equiv_pos_as_xyz
1 x,y,z
2 x,-y,z+1/2
3 x+1/2,y+1/2,z
4 x+1/2,-y+1/2,z+1/2
loop_
_atom_site_label
_atom_site_type_symbol
_atom_site_fract_x
_atom_site_fract_y
_atom_site_fract_z
_atom_site_fftype
_atom_site_charge
_atom_site_hybridization
C1_0 C -0.4025011386 0.4905211151 -0.4171280067 C4 -0.2673638110 SP3
H1_0 H -0.2122334947 0.4693754915 -0.1933439161 H 0.1423097670 UNKNOWN
H2_0 H -0.3952378452 0.4631910295 -0.5422008828 H 0.1423097670 UNKNOWN
H3_0 H -0.6721803139 0.4867833831 -0.5369312128 H 0.1423097670 UNKNOWN
O1_0 O -0.3022744728 0.5552268969 -0.3821447220 O2 -0.5855322470 SP3
H4_0 H -0.5107301870 0.5790135380 -0.5750151890 H 0.4259667570 UNKNOWN
H4_1 H -0.0228571872 0.5945224379 -0.0732134095 H 0.4259667570 UNKNOWN
O1_1 O 0.1597339953 0.6184983330 0.1228949110 O2 -0.5855322470 SP3
C1_1 C -0.0158144349 0.6643319299 0.1197768957 C4 -0.2673638110 SP3
H1_1 H -0.2434667743 0.6438153324 0.0447833357 H 0.1423097670 UNKNOWN
H2_1 H -0.1117688759 0.7047646855 -0.0270403245 H 0.1423097670 UNKNOWN
H3_1 H 0.1781043206 0.6821482471 0.3497550619 H 0.1423097670 UNKNOWN
#END
