#############################################
# Avant-garde Materials Simulation           
#############################################

data_g528
_cell_length_a 11.7883238387
_cell_length_b 9.6410754498
_cell_length_c 10.9159653835
_cell_angle_alpha 90.0000000000
_cell_angle_beta 22.4924559712
_cell_angle_gamma 90.0000000000
_cell_volume 474.6147956496
_exptl_crystal_density_diffrn 0.8968554183
_total_energy -5682.4518299322
_electrostatic_energy 0.0000000000
_vdw_energy -45.3951777992
_bond_energy 0.0000000000
_angle_energy 0.0000000000
_stretch_bend_coupling_energy 0.0000000000
_torsion_energy 0.0000000000
_inversion_energy 0.0000000000
_last_operation minimize_crystal_energy
_last_operation_comment none
_symmetry_cell_setting monoclinic
_symmetry_space_group_name_H-M 'C 2/c'
_symmetry_Int_Tables_number 15
loop_
_symmetry_equiv_pos_site_id
_symmetry_equiv_pos_as_xyz
1 x,y,z
2 -x,y,-z+1/2
3 -x,-y,-z
4 x,-y,z+1/2
5 x+1/2,y+1/2,z
6 -x+1/2,y+1/2,-z+1/2
7 -x+1/2,-y+1/2,-z
8 x+1/2,-y+1/2,z+1/2
loop_
_atom_site_label
_atom_site_type_symbol
_atom_site_fract_x
_atom_site_fract_y
_atom_site_fract_z
_atom_site_fftype
_atom_site_charge
_atom_site_hybridization
C1_0 C -1.2504904855 -0.0887910872 0.6402581759 C4 -0.2673638110 SP3
H1_0 H -1.0569429190 -0.0198062857 0.4469341021 H 0.1423097670 UNKNOWN
H2_0 H -1.4517501887 -0.0242073826 0.8435761755 H 0.1423097670 UNKNOWN
H3_0 H -1.2507361634 -0.1495904051 0.5549650702 H 0.1423097670 UNKNOWN
O1_0 O -1.2314187582 -0.1765774167 0.7270657462 O2 -0.5855322470 SP3
H4_0 H -1.4202348355 -0.2321357867 0.9206866943 H 0.4259667570 UNKNOWN
#END
