#############################################
# Avant-garde Materials Simulation           
#############################################

data_g2338
_cell_length_a 6.0614501721
_cell_length_b 17.7389407591
_cell_length_c 6.7986750819
_cell_angle_alpha 90.0000000000
_cell_angle_beta 141.3630167857
_cell_angle_gamma 90.0000000000
_cell_volume 456.4363460631
_exptl_crystal_density_diffrn 0.9325743990
_total_energy -5673.7151071992
_electrostatic_energy 0.0000000000
_vdw_energy -45.7231772734
_bond_energy 0.0000000000
_angle_energy 0.0000000000
_stretch_bend_coupling_energy 0.0000000000
_torsion_energy 0.0000000000
_inversion_energy 0.0000000000
_last_operation minimize_crystal_energy
_last_operation_comment none
_symmetry_cell_setting monoclinic
_symmetry_space_group_name_H-M 'C c'
_symmetry_Int_Tables_number 9
loop_
_symmetry_equiv_pos_site_id
_symmetry_equiv_pos_as_xyz
1 x,y,z
2 x,-y,z+1/2
3 x+1/2,y+1/2,z
4 x+1/2,-y+1/2,z+1/2
loop_
_atom_site_label
_atom_site_type_symbol
_atom_site_fract_x
_atom_site_fract_y
_atom_site_fract_z
_atom_site_fftype
_atom_site_charge
_atom_site_hybridization
C1_0 C -0.2448296395 -0.0721714192 0.4983569309 C4 -0.2673638110 SP3
H1_0 H -0.1729234185 -0.0512355521 0.6951068471 H 0.1423097670 UNKNOWN
H2_0 H -0.3781776830 -0.0261662219 0.3246281861 H 0.1423097670 UNKNOWN
H3_0 H 0.0022938626 -0.0862052901 0.5923270606 H 0.1423097670 UNKNOWN
O1_0 O -0.4680271364 -0.1360338842 0.3677594980 O2 -0.5855322470 SP3
H4_0 H -0.4899934993 -0.1613066635 0.2237501021 H 0.4259667570 UNKNOWN
H1_1 H -0.4285653996 0.1066884914 0.3727404400 H 0.1423097670 UNKNOWN
C1_1 C -0.2912960366 0.1614138317 0.4697150095 C4 -0.2673638110 SP3
H2_1 H -0.0084414154 0.1519747533 0.6910866957 H 0.1423097670 UNKNOWN
H3_1 H -0.3264011355 0.1884566132 0.3013255906 H 0.1423097670 UNKNOWN
O1_1 O -0.4286156153 0.2082842023 0.5307508724 O2 -0.5855322470 SP3
H4_1 H -0.6342972820 0.2382612462 0.3337132736 H 0.4259667570 UNKNOWN
#END
