#############################################
# Avant-garde Materials Simulation           
#############################################

data_g1615
_cell_length_a 6.3795172831
_cell_length_b 6.3973764448
_cell_length_c 10.0721113757
_cell_angle_alpha 90.0000000000
_cell_angle_beta 85.0973685922
_cell_angle_gamma 90.0000000000
_cell_volume 409.5608249995
_exptl_crystal_density_diffrn 1.0393104641
_total_energy -5689.9769327821
_electrostatic_energy 0.0000000000
_vdw_energy -51.1144458794
_bond_energy 0.0000000000
_angle_energy 0.0000000000
_stretch_bend_coupling_energy 0.0000000000
_torsion_energy 0.0000000000
_inversion_energy 0.0000000000
_last_operation minimize_crystal_energy
_last_operation_comment none
_symmetry_cell_setting monoclinic
_symmetry_space_group_name_H-M 'C c'
_symmetry_Int_Tables_number 9
loop_
_symmetry_equiv_pos_site_id
_symmetry_equiv_pos_as_xyz
1 x,y,z
2 x,-y,z+1/2
3 x+1/2,y+1/2,z
4 x+1/2,-y+1/2,z+1/2
loop_
_atom_site_label
_atom_site_type_symbol
_atom_site_fract_x
_atom_site_fract_y
_atom_site_fract_z
_atom_site_fftype
_atom_site_charge
_atom_site_hybridization
C1_0 C -0.7685169834 0.0341670455 -0.2242578185 C4 -0.2673638110 SP3
H1_0 H -0.9349351294 -0.0047617642 -0.2302341086 H 0.1423097670 UNKNOWN
H2_0 H -0.6772513882 -0.0225874777 -0.3149279680 H 0.1423097670 UNKNOWN
H3_0 H -0.7538793289 0.2053078257 -0.2190454125 H 0.1423097670 UNKNOWN
O1_0 O -0.7017817727 -0.0617401623 -0.1061412843 O2 -0.5855322470 SP3
H4_0 H -0.5508990142 -0.0205737240 -0.0972100650 H 0.4259667570 UNKNOWN
H1_1 H -0.7695319480 -0.2907674936 -0.4582317028 H 0.1423097670 UNKNOWN
C1_1 C -0.7270035465 -0.4568673898 -0.4643511364 C4 -0.2673638110 SP3
H2_1 H -0.5544499910 -0.4695446577 -0.4694340689 H 0.1423097670 UNKNOWN
H3_1 H -0.7955646395 -0.5363380988 -0.3737601226 H 0.1423097670 UNKNOWN
O1_1 O -0.8060633601 -0.5402476618 -0.5826084628 O2 -0.5855322470 SP3
H4_1 H -0.7637627871 -0.6919926480 -0.5913670246 H 0.4259667570 UNKNOWN
#END
