#############################################
# Avant-garde Materials Simulation           
#############################################

data_g796
_cell_length_a 14.3918957180
_cell_length_b 4.3511599755
_cell_length_c 7.5287941476
_cell_angle_alpha 90.0000000000
_cell_angle_beta 60.9333876278
_cell_angle_gamma 90.0000000000
_cell_volume 412.0856337427
_exptl_crystal_density_diffrn 1.0329427096
_total_energy -5685.9389602214
_electrostatic_energy 0.0000000000
_vdw_energy -51.0257468637
_bond_energy 0.0000000000
_angle_energy 0.0000000000
_stretch_bend_coupling_energy 0.0000000000
_torsion_energy 0.0000000000
_inversion_energy 0.0000000000
_last_operation minimize_crystal_energy
_last_operation_comment none
_symmetry_cell_setting monoclinic
_symmetry_space_group_name_H-M 'C 2/c'
_symmetry_Int_Tables_number 15
loop_
_symmetry_equiv_pos_site_id
_symmetry_equiv_pos_as_xyz
1 x,y,z
2 -x,y,-z+1/2
3 -x,-y,-z
4 x,-y,z+1/2
5 x+1/2,y+1/2,z
6 -x+1/2,y+1/2,-z+1/2
7 -x+1/2,-y+1/2,-z
8 x+1/2,-y+1/2,z+1/2
loop_
_atom_site_label
_atom_site_type_symbol
_atom_site_fract_x
_atom_site_fract_y
_atom_site_fract_z
_atom_site_fftype
_atom_site_charge
_atom_site_hybridization
C1_0 C -0.3849399814 -0.2513931211 -0.4899665441 C4 -0.2673638110 SP3
H1_0 H -0.3729744749 -0.4548094078 -0.4167432825 H 0.1423097670 UNKNOWN
H2_0 H -0.4653984521 -0.2594721293 -0.4725297952 H 0.1423097670 UNKNOWN
H3_0 H -0.3778736940 -0.0460329428 -0.4121536625 H 0.1423097670 UNKNOWN
O1_0 O -0.3071270074 -0.2399637656 -0.7019036805 O2 -0.5855322470 SP3
H4_0 H -0.2638667136 -0.4361797754 -0.7388250329 H 0.4259667570 UNKNOWN
#END
