#############################################
# Avant-garde Materials Simulation           
#############################################

data_g1730
_cell_length_a 6.3005512288
_cell_length_b 7.0066690391
_cell_length_c 4.7515477764
_cell_angle_alpha 90.0000000000
_cell_angle_beta 97.4281208505
_cell_angle_gamma 90.0000000000
_cell_volume 208.0008927131
_exptl_crystal_density_diffrn 1.0232188082
_total_energy -2835.6260885192
_electrostatic_energy 0.0000000000
_vdw_energy -25.6969683398
_bond_energy 0.0000000000
_angle_energy 0.0000000000
_stretch_bend_coupling_energy 0.0000000000
_torsion_energy 0.0000000000
_inversion_energy 0.0000000000
_last_operation minimize_crystal_energy
_last_operation_comment none
_symmetry_cell_setting monoclinic
_symmetry_space_group_name_H-M 'P c'
_symmetry_Int_Tables_number 7
loop_
_symmetry_equiv_pos_site_id
_symmetry_equiv_pos_as_xyz
1 x,y,z
2 x,-y,z+1/2
loop_
_atom_site_label
_atom_site_type_symbol
_atom_site_fract_x
_atom_site_fract_y
_atom_site_fract_z
_atom_site_fftype
_atom_site_charge
_atom_site_hybridization
C1_0 C -0.4610929864 0.2173935627 -0.7606494162 C4 -0.2673638110 SP3
H1_0 H -0.2905778283 0.1775838137 -0.7267389084 H 0.1423097670 UNKNOWN
H2_0 H -0.5364040403 0.1608313701 -0.9652056494 H 0.1423097670 UNKNOWN
H3_0 H -0.5431908973 0.1579819924 -0.5906840751 H 0.1423097670 UNKNOWN
O1_0 O -0.4862718108 0.4210467217 -0.7532479254 O2 -0.5855322470 SP3
H4_0 H -0.4615715622 0.4772016899 -0.9403444157 H 0.4259667570 UNKNOWN
H4_1 H -0.7612433041 0.5731473525 -0.7765965775 H 0.4259667570 UNKNOWN
O1_1 O -0.8342684737 0.6924791588 -0.8381907250 O2 -0.5855322470 SP3
C1_1 C -0.9933529410 0.7316714227 -0.6568629029 C4 -0.2673638110 SP3
H1_1 H -0.9248188872 0.7422613631 -0.4316981080 H 0.1423097670 UNKNOWN
H2_1 H -1.1201289215 0.6222586479 -0.6767639993 H 0.1423097670 UNKNOWN
H3_1 H -1.0650073064 0.8699601355 -0.7235279738 H 0.1423097670 UNKNOWN
#END
