#############################################
# Avant-garde Materials Simulation           
#############################################

data_g980
_cell_length_a 4.9413569033
_cell_length_b 8.6843838805
_cell_length_c 6.4487648356
_cell_angle_alpha 116.8728850046
_cell_angle_beta 95.0545605588
_cell_angle_gamma 60.1795287970
_cell_volume 210.7973582629
_exptl_crystal_density_diffrn 1.0096446526
_total_energy -2842.7324140707
_electrostatic_energy 0.0000000000
_vdw_energy -24.7092918930
_bond_energy 0.0000000000
_angle_energy 0.0000000000
_stretch_bend_coupling_energy 0.0000000000
_torsion_energy 0.0000000000
_inversion_energy 0.0000000000
_last_operation minimize_crystal_energy
_last_operation_comment none
_symmetry_cell_setting triclinic
_symmetry_space_group_name_H-M 'P -1'
_symmetry_Int_Tables_number 2
loop_
_symmetry_equiv_pos_site_id
_symmetry_equiv_pos_as_xyz
1 x,y,z
2 -x,-y,-z
loop_
_atom_site_label
_atom_site_type_symbol
_atom_site_fract_x
_atom_site_fract_y
_atom_site_fract_z
_atom_site_fftype
_atom_site_charge
_atom_site_hybridization
C1_0 C 1.0425311289 0.7379559794 0.0995419909 C4 -0.2673638110 SP3
H1_0 H 1.0205557265 0.7669764243 -0.0518002956 H 0.1423097670 UNKNOWN
H2_0 H 1.2042077380 0.5757304854 0.0381812260 H 0.1423097670 UNKNOWN
H3_0 H 1.1431771234 0.8218816033 0.2291868896 H 0.1423097670 UNKNOWN
O1_0 O 0.7315377624 0.8015757180 0.1955488509 O2 -0.5855322470 SP3
H4_0 H 0.7414942052 0.7878499020 0.3435213735 H 0.4259667570 UNKNOWN
H4_1 H 0.4589352766 1.0432175455 0.2985461261 H 0.4259667570 UNKNOWN
O1_1 O 0.2960954246 1.1909706100 0.3908863464 O2 -0.5855322470 SP3
C1_1 C 0.4260413910 1.3028947233 0.3775983316 C4 -0.2673638110 SP3
H1_1 H 0.2661531296 1.4622106138 0.5020198089 H 0.1423097670 UNKNOWN
H2_1 H 0.4405145348 1.2864837144 0.1987630145 H 0.1423097670 UNKNOWN
H3_1 H 0.6635620047 1.2541443073 0.4258056882 H 0.1423097670 UNKNOWN
#END
