#############################################
# Avant-garde Materials Simulation           
#############################################

data_g986
_cell_length_a 4.7696801172
_cell_length_b 6.3659867070
_cell_length_c 7.0490636504
_cell_angle_alpha 93.2743797959
_cell_angle_beta 83.2039862640
_cell_angle_gamma 95.4272202543
_cell_volume 211.3507163620
_exptl_crystal_density_diffrn 1.0070012026
_total_energy -2842.7957236355
_electrostatic_energy 0.0000000000
_vdw_energy -24.8468624733
_bond_energy 0.0000000000
_angle_energy 0.0000000000
_stretch_bend_coupling_energy 0.0000000000
_torsion_energy 0.0000000000
_inversion_energy 0.0000000000
_last_operation minimize_crystal_energy
_last_operation_comment none
_symmetry_cell_setting triclinic
_symmetry_space_group_name_H-M 'P -1'
_symmetry_Int_Tables_number 2
loop_
_symmetry_equiv_pos_site_id
_symmetry_equiv_pos_as_xyz
1 x,y,z
2 -x,-y,-z
loop_
_atom_site_label
_atom_site_type_symbol
_atom_site_fract_x
_atom_site_fract_y
_atom_site_fract_z
_atom_site_fftype
_atom_site_charge
_atom_site_hybridization
C1_0 C 0.0820497455 0.7405436792 0.8261263911 C4 -0.2673638110 SP3
H1_0 H -0.0046033571 0.7848373765 0.9724646125 H 0.1423097670 UNKNOWN
H2_0 H 0.3020319993 0.8120473157 0.8001057324 H 0.1423097670 UNKNOWN
H3_0 H 0.0819380834 0.5676064065 0.8117551767 H 0.1423097670 UNKNOWN
O1_0 O -0.0959671029 0.8135747917 0.6971297980 O2 -0.5855322470 SP3
H4_0 H -0.0111248097 0.7811127311 0.5621637202 H 0.4259667570 UNKNOWN
H3_1 H 0.5038587912 0.7531570047 1.1511626365 H 0.1423097670 UNKNOWN
C1_1 C 0.4122370007 0.7224342269 1.2989051243 C4 -0.2673638110 SP3
H1_1 H 0.4102176674 0.5530234525 1.3204461789 H 0.1423097670 UNKNOWN
H2_1 H 0.5470366792 0.8105330111 1.3982842106 H 0.1423097670 UNKNOWN
O1_1 O 0.1247698829 0.7770948243 1.3328190441 O2 -0.5855322470 SP3
H4_1 H 0.1213459313 0.9311667731 1.3073670429 H 0.4259667570 UNKNOWN
#END
