#############################################
# Avant-garde Materials Simulation           
#############################################

data_g772
_cell_length_a 11.2895632853
_cell_length_b 11.2895632853
_cell_length_c 4.4085199186
_cell_angle_alpha 90.0000000000
_cell_angle_beta 90.0000000000
_cell_angle_gamma 120.0000000000
_cell_volume 486.6062961121
_exptl_crystal_density_diffrn 0.9840983590
_total_energy -6391.9240205376
_electrostatic_energy 0.0000000000
_vdw_energy -55.5088191220
_bond_energy 0.0000000000
_angle_energy 0.0000000000
_stretch_bend_coupling_energy 0.0000000000
_torsion_energy 0.0000000000
_inversion_energy 0.0000000000
_last_operation minimize_crystal_energy
_last_operation_comment none
_symmetry_cell_setting hexagonal
_symmetry_space_group_name_H-M 'R 3'
_symmetry_Int_Tables_number 146
loop_
_symmetry_equiv_pos_site_id
_symmetry_equiv_pos_as_xyz
1 x,y,z
2 -y,x-y,z
3 -x+y,-x,z
4 x+2/3,y+1/3,z+1/3
5 -y+2/3,x-y+1/3,z+1/3
6 -x+y+2/3,-x+1/3,z+1/3
7 x+1/3,y+2/3,z+2/3
8 -y+1/3,x-y+2/3,z+2/3
9 -x+y+1/3,-x+2/3,z+2/3
loop_
_atom_site_label
_atom_site_type_symbol
_atom_site_fract_x
_atom_site_fract_y
_atom_site_fract_z
_atom_site_fftype
_atom_site_charge
_atom_site_hybridization
C1_0 C -0.2295855774 -0.1031870475 -0.4439571932 C4 -0.2673638110 SP3
H1_0 H -0.1931449247 -0.0107735901 -0.5841480290 H 0.1423097670 UNKNOWN
H2_0 H -0.1578962205 -0.0798034702 -0.2548987263 H 0.1423097670 UNKNOWN
H3_0 H -0.3306816756 -0.1324637828 -0.3480207653 H 0.1423097670 UNKNOWN
O1_0 O -0.2331382998 -0.2129033502 -0.6156997480 O2 -0.5855322470 SP3
H4_0 H -0.3175902291 -0.2557963230 -0.7473916625 H 0.4259667570 UNKNOWN
#END
