#############################################
# Avant-garde Materials Simulation           
#############################################

data_g846
_cell_length_a 10.3688995985
_cell_length_b 10.3688995985
_cell_length_c 4.3787995962
_cell_angle_alpha 90.0000000000
_cell_angle_beta 90.0000000000
_cell_angle_gamma 90.0000000000
_cell_volume 470.7826052065
_exptl_crystal_density_diffrn 0.9041558596
_total_energy -5685.1039251162
_electrostatic_energy 0.0000000000
_vdw_energy -44.7950737840
_bond_energy 0.0000000000
_angle_energy 0.0000000000
_stretch_bend_coupling_energy 0.0000000000
_torsion_energy 0.0000000000
_inversion_energy 0.0000000000
_last_operation minimize_crystal_energy
_last_operation_comment none
_symmetry_cell_setting tetragonal
_symmetry_space_group_name_H-M 'I 4'
_symmetry_Int_Tables_number 79
loop_
_symmetry_equiv_pos_site_id
_symmetry_equiv_pos_as_xyz
1 x,y,z
2 -x,-y,z
3 -y,x,z
4 y,-x,z
5 x+1/2,y+1/2,z+1/2
6 -x+1/2,-y+1/2,z+1/2
7 -y+1/2,x+1/2,z+1/2
8 y+1/2,-x+1/2,z+1/2
loop_
_atom_site_label
_atom_site_type_symbol
_atom_site_fract_x
_atom_site_fract_y
_atom_site_fract_z
_atom_site_fftype
_atom_site_charge
_atom_site_hybridization
C1_0 C 0.4416848293 0.2360195796 1.3230290459 C4 -0.2673638110 SP3
H1_0 H 0.4600976491 0.3394879388 1.3622290161 H 0.1423097670 UNKNOWN
H2_0 H 0.4875778452 0.2082403704 1.1069593826 H 0.1423097670 UNKNOWN
H3_0 H 0.4866949843 0.1812432900 1.5100665539 H 0.1423097670 UNKNOWN
O1_0 O 0.3064367885 0.2093103166 1.3010693143 O2 -0.5855322470 SP3
H4_0 H 0.2631480772 0.2389574705 1.4957845360 H 0.4259667570 UNKNOWN
#END
