#############################################
# Avant-garde Materials Simulation           
#############################################

data_g988
_cell_length_a 4.4006706416
_cell_length_b 7.0240982228
_cell_length_c 6.9266498745
_cell_angle_alpha 90.0000000000
_cell_angle_beta 88.1683725293
_cell_angle_gamma 90.0000000000
_cell_volume 213.9984986529
_exptl_crystal_density_diffrn 0.9945416762
_total_energy -2843.7727452892
_electrostatic_energy 0.0000000000
_vdw_energy -24.5836590368
_bond_energy 0.0000000000
_angle_energy 0.0000000000
_stretch_bend_coupling_energy 0.0000000000
_torsion_energy 0.0000000000
_inversion_energy 0.0000000000
_last_operation minimize_crystal_energy
_last_operation_comment none
_symmetry_cell_setting monoclinic
_symmetry_space_group_name_H-M 'P 2_1'
_symmetry_Int_Tables_number 4
loop_
_symmetry_equiv_pos_site_id
_symmetry_equiv_pos_as_xyz
1 x,y,z
2 -x,y+1/2,-z
loop_
_atom_site_label
_atom_site_type_symbol
_atom_site_fract_x
_atom_site_fract_y
_atom_site_fract_z
_atom_site_fftype
_atom_site_charge
_atom_site_hybridization
C1_0 C -0.2285901769 0.7873563444 -0.0356794536 C4 -0.2673638110 SP3
H1_0 H -0.4483394653 0.7206103731 -0.0645292479 H 0.1423097670 UNKNOWN
H2_0 H -0.0567770577 0.6746210093 -0.0243580960 H 0.1423097670 UNKNOWN
H3_0 H -0.1624778718 0.8796745422 -0.1587672191 H 0.1423097670 UNKNOWN
O1_0 O -0.2563036559 0.8965694330 0.1389102576 O2 -0.5855322470 SP3
H4_0 H -0.0632986722 0.8822145258 0.2135171716 H 0.4259667570 UNKNOWN
H4_1 H -0.5656991294 0.8768962580 0.2604609353 H 0.4259667570 UNKNOWN
O1_1 O -0.7666055357 0.8621880572 0.3343817481 O2 -0.5855322470 SP3
C1_1 C -0.7444934180 0.7061888106 0.4662812730 C4 -0.2673638110 SP3
H1_1 H -0.9740144692 0.6550490904 0.5050250677 H 0.1423097670 UNKNOWN
H2_1 H -0.6333858049 0.7504329066 0.5993234973 H 0.1423097670 UNKNOWN
H3_1 H -0.6132653736 0.5874249904 0.4017176263 H 0.1423097670 UNKNOWN
#END
