#############################################
# Avant-garde Materials Simulation           
#############################################

data_g929
_cell_length_a 6.6734036446
_cell_length_b 4.5454029805
_cell_length_c 7.3658641366
_cell_angle_alpha 90.0000000000
_cell_angle_beta 114.3307137224
_cell_angle_gamma 90.0000000000
_cell_volume 203.5864573307
_exptl_crystal_density_diffrn 1.0454056146
_total_energy -2839.1697176805
_electrostatic_energy 0.0000000000
_vdw_energy -25.7742697158
_bond_energy 0.0000000000
_angle_energy 0.0000000000
_stretch_bend_coupling_energy 0.0000000000
_torsion_energy 0.0000000000
_inversion_energy 0.0000000000
_last_operation minimize_crystal_energy
_last_operation_comment none
_symmetry_cell_setting monoclinic
_symmetry_space_group_name_H-M 'P 2_1'
_symmetry_Int_Tables_number 4
loop_
_symmetry_equiv_pos_site_id
_symmetry_equiv_pos_as_xyz
1 x,y,z
2 -x,y+1/2,-z
loop_
_atom_site_label
_atom_site_type_symbol
_atom_site_fract_x
_atom_site_fract_y
_atom_site_fract_z
_atom_site_fftype
_atom_site_charge
_atom_site_hybridization
C1_0 C -0.5452459453 0.5732597010 0.2177801185 C4 -0.2673638110 SP3
H1_0 H -0.6220980913 0.7706964720 0.1315057027 H 0.1423097670 UNKNOWN
H2_0 H -0.6271759705 0.3794696698 0.1286104279 H 0.1423097670 UNKNOWN
H3_0 H -0.3689860488 0.5717134130 0.2499463924 H 0.1423097670 UNKNOWN
O1_0 O -0.5802241963 0.5832711430 0.3990915781 O2 -0.5855322470 SP3
H4_0 H -0.5229403252 0.3945397694 0.4738455810 H 0.4259667570 UNKNOWN
H4_1 H -0.8827741609 0.6373608741 0.3004259192 H 0.4259667570 UNKNOWN
O1_1 O -1.0356380569 0.7088808697 0.2395832052 O2 -0.5855322470 SP3
C1_1 C -1.0265972637 1.0213670578 0.2646597017 C4 -0.2673638110 SP3
H1_1 H -1.1943188938 1.0997236780 0.2279903855 H 0.1423097670 UNKNOWN
H2_1 H -0.9662768007 1.1313013328 0.1632626241 H 0.1423097670 UNKNOWN
H3_1 H -0.9249989191 1.0863382758 0.4196516166 H 0.1423097670 UNKNOWN
#END
