#############################################
# Avant-garde Materials Simulation           
#############################################

data_g938
_cell_length_a 6.5619602060
_cell_length_b 4.5903472247
_cell_length_c 6.7781060165
_cell_angle_alpha 90.0000000000
_cell_angle_beta 95.8001914619
_cell_angle_gamma 90.0000000000
_cell_volume 203.1226481675
_exptl_crystal_density_diffrn 1.0477926881
_total_energy -2840.0658187901
_electrostatic_energy 0.0000000000
_vdw_energy -25.8071747726
_bond_energy 0.0000000000
_angle_energy 0.0000000000
_stretch_bend_coupling_energy 0.0000000000
_torsion_energy 0.0000000000
_inversion_energy 0.0000000000
_last_operation minimize_crystal_energy
_last_operation_comment none
_symmetry_cell_setting monoclinic
_symmetry_space_group_name_H-M 'P 2_1'
_symmetry_Int_Tables_number 4
loop_
_symmetry_equiv_pos_site_id
_symmetry_equiv_pos_as_xyz
1 x,y,z
2 -x,y+1/2,-z
loop_
_atom_site_label
_atom_site_type_symbol
_atom_site_fract_x
_atom_site_fract_y
_atom_site_fract_z
_atom_site_fftype
_atom_site_charge
_atom_site_hybridization
C1_0 C -0.7720071824 0.5659571001 0.8530239051 C4 -0.2673638110 SP3
H1_0 H -0.8567752509 0.7714156409 0.8571161717 H 0.1423097670 UNKNOWN
H2_0 H -0.8753173304 0.3845928949 0.8792120138 H 0.1423097670 UNKNOWN
H3_0 H -0.7183445862 0.5413715590 0.7055609120 H 0.1423097670 UNKNOWN
O1_0 O -0.6025330569 0.5788526067 1.0072291216 O2 -0.5855322470 SP3
H4_0 H -0.5254892502 0.3894226109 1.0052019350 H 0.4259667570 UNKNOWN
H4_1 H -0.7130119843 0.6372661700 1.2402193901 H 0.4259667570 UNKNOWN
O1_1 O -0.7923937531 0.6872925106 1.3515004102 O2 -0.5855322470 SP3
C1_1 C -0.7525998487 0.9865479415 1.4008352408 C4 -0.2673638110 SP3
H1_1 H -0.8684104077 1.0588228279 1.4961132727 H 0.1423097670 UNKNOWN
H2_1 H -0.7646527783 1.1263058563 1.2681167544 H 0.1423097670 UNKNOWN
H3_1 H -0.5989293810 1.0177143601 1.4808454409 H 0.1423097670 UNKNOWN
#END
