#############################################
# Avant-garde Materials Simulation           
#############################################

data_g420
_cell_length_a 5.2072529877
_cell_length_b 5.2072529877
_cell_length_c 8.0878564560
_cell_angle_alpha 90.0000000000
_cell_angle_beta 90.0000000000
_cell_angle_gamma 90.0000000000
_cell_volume 219.3061397236
_exptl_crystal_density_diffrn 0.9704718063
_total_energy -2843.2016089489
_electrostatic_energy 0.0000000000
_vdw_energy -23.8207628675
_bond_energy 0.0000000000
_angle_energy 0.0000000000
_stretch_bend_coupling_energy 0.0000000000
_torsion_energy 0.0000000000
_inversion_energy 0.0000000000
_last_operation minimize_crystal_energy
_last_operation_comment none
_symmetry_cell_setting tetragonal
_symmetry_space_group_name_H-M 'P 4_1'
_symmetry_Int_Tables_number 76
loop_
_symmetry_equiv_pos_site_id
_symmetry_equiv_pos_as_xyz
1 x,y,z
2 -x,-y,z+1/2
3 -y,x,z+1/4
4 y,-x,z+3/4
loop_
_atom_site_label
_atom_site_type_symbol
_atom_site_fract_x
_atom_site_fract_y
_atom_site_fract_z
_atom_site_fftype
_atom_site_charge
_atom_site_hybridization
C1_0 C -0.5394243732 -0.9923766908 -0.5578388262 C4 -0.2673638110 SP3
H1_0 H -0.6933387204 -1.0212364785 -0.4658525500 H 0.1423097670 UNKNOWN
H2_0 H -0.3631929346 -1.0827808147 -0.5104303652 H 0.1423097670 UNKNOWN
H3_0 H -0.5942475931 -1.0896216727 -0.6729391518 H 0.1423097670 UNKNOWN
O1_0 O -0.5007304620 -0.7262458976 -0.5937673082 O2 -0.5855322470 SP3
H4_0 H -0.4190040457 -0.6390261331 -0.4961530679 H 0.4259667570 UNKNOWN
#END
