#############################################
# Avant-garde Materials Simulation           
#############################################

data_g2027
_cell_length_a 5.2758419232
_cell_length_b 9.9135841517
_cell_length_c 10.1182552711
_cell_angle_alpha 90.0000000000
_cell_angle_beta 60.5256747493
_cell_angle_gamma 90.0000000000
_cell_volume 460.7177324181
_exptl_crystal_density_diffrn 0.9239081137
_total_energy -5684.1021441941
_electrostatic_energy 0.0000000000
_vdw_energy -44.7590328089
_bond_energy 0.0000000000
_angle_energy 0.0000000000
_stretch_bend_coupling_energy 0.0000000000
_torsion_energy 0.0000000000
_inversion_energy 0.0000000000
_last_operation minimize_crystal_energy
_last_operation_comment none
_symmetry_cell_setting monoclinic
_symmetry_space_group_name_H-M 'C c'
_symmetry_Int_Tables_number 9
loop_
_symmetry_equiv_pos_site_id
_symmetry_equiv_pos_as_xyz
1 x,y,z
2 x,-y,z+1/2
3 x+1/2,y+1/2,z
4 x+1/2,-y+1/2,z+1/2
loop_
_atom_site_label
_atom_site_type_symbol
_atom_site_fract_x
_atom_site_fract_y
_atom_site_fract_z
_atom_site_fftype
_atom_site_charge
_atom_site_hybridization
C1_0 C -1.1975481899 -0.2634103641 0.3685737048 C4 -0.2673638110 SP3
H1_0 H -1.2039364162 -0.3737615808 0.3830944133 H 0.1423097670 UNKNOWN
H2_0 H -1.1770011486 -0.2412023039 0.2574755904 H 0.1423097670 UNKNOWN
H3_0 H -1.4047623385 -0.2209519334 0.4573222604 H 0.1423097670 UNKNOWN
O1_0 O -0.9541522366 -0.2047395472 0.3737573387 O2 -0.5855322470 SP3
H4_0 H -0.9570267619 -0.2381621969 0.4687092258 H 0.4259667570 UNKNOWN
H1_1 H -1.7221492643 -0.4605589466 0.4750643574 H 0.1423097670 UNKNOWN
C1_1 C -1.8909452873 -0.4454046802 0.5936090990 C4 -0.2673638110 SP3
H2_1 H -2.0817256520 -0.5075055219 0.6169478194 H 0.1423097670 UNKNOWN
H3_1 H -1.8038816937 -0.4802324900 0.6669585615 H 0.1423097670 UNKNOWN
O1_1 O -1.9633017019 -0.3048420924 0.6167025357 O2 -0.5855322470 SP3
H4_1 H -2.1491755413 -0.2949250137 0.7170464140 H 0.4259667570 UNKNOWN
#END
