#############################################
# Avant-garde Materials Simulation           
#############################################

data_g2337
_cell_length_a 4.3272377144
_cell_length_b 25.3455875295
_cell_length_c 4.3634644405
_cell_angle_alpha 90.0000000000
_cell_angle_beta 59.9443794652
_cell_angle_gamma 90.0000000000
_cell_volume 414.2204227773
_exptl_crystal_density_diffrn 1.0276191797
_total_energy -5688.8610931159
_electrostatic_energy 0.0000000000
_vdw_energy -50.7658476785
_bond_energy 0.0000000000
_angle_energy 0.0000000000
_stretch_bend_coupling_energy 0.0000000000
_torsion_energy 0.0000000000
_inversion_energy 0.0000000000
_last_operation minimize_crystal_energy
_last_operation_comment none
_symmetry_cell_setting monoclinic
_symmetry_space_group_name_H-M 'C c'
_symmetry_Int_Tables_number 9
loop_
_symmetry_equiv_pos_site_id
_symmetry_equiv_pos_as_xyz
1 x,y,z
2 x,-y,z+1/2
3 x+1/2,y+1/2,z
4 x+1/2,-y+1/2,z+1/2
loop_
_atom_site_label
_atom_site_type_symbol
_atom_site_fract_x
_atom_site_fract_y
_atom_site_fract_z
_atom_site_fftype
_atom_site_charge
_atom_site_hybridization
C1_0 C -0.4934883814 0.3173832068 -0.7514500833 C4 -0.2673638110 SP3
H1_0 H -0.7857505041 0.3204106447 -0.5926953333 H 0.1423097670 UNKNOWN
H2_0 H -0.4202802747 0.3066761517 -1.0238260809 H 0.1423097670 UNKNOWN
H3_0 H -0.3765376647 0.3561287715 -0.7544906969 H 0.1423097670 UNKNOWN
O1_0 O -0.3730775725 0.2782179001 -0.5973236225 O2 -0.5855322470 SP3
H4_0 H -0.1736129277 0.2571588322 -0.7942068367 H 0.4259667570 UNKNOWN
H4_1 H -0.5374888665 0.5072143353 -0.8414527032 H 0.4259667570 UNKNOWN
O1_1 O -0.5391949704 0.5280151650 -0.6425780046 O2 -0.5855322470 SP3
C1_1 C -0.8138516099 0.5674133848 -0.5226030739 C4 -0.2673638110 SP3
H1_1 H -0.9465555908 0.5702166012 -0.2326001896 H 0.1423097670 UNKNOWN
H2_1 H -1.0152124676 0.5570681038 -0.5958944572 H 0.1423097670 UNKNOWN
H3_1 H -0.6979085603 0.6060987113 -0.6380608636 H 0.1423097670 UNKNOWN
#END
