#############################################
# Avant-garde Materials Simulation           
#############################################

data_g304
_cell_length_a 7.1247379337
_cell_length_b 4.7052620685
_cell_length_c 6.5208556481
_cell_angle_alpha 90.0000000000
_cell_angle_beta 90.0000000000
_cell_angle_gamma 90.0000000000
_cell_volume 218.6035941816
_exptl_crystal_density_diffrn 0.9735906966
_total_energy -2836.6328038266
_electrostatic_energy 0.0000000000
_vdw_energy -23.4226014261
_bond_energy 0.0000000000
_angle_energy 0.0000000000
_stretch_bend_coupling_energy 0.0000000000
_torsion_energy 0.0000000000
_inversion_energy 0.0000000000
_last_operation minimize_crystal_energy
_last_operation_comment none
_symmetry_cell_setting orthorhombic
_symmetry_space_group_name_H-M 'P b c m'
_symmetry_Int_Tables_number 57
loop_
_symmetry_equiv_pos_site_id
_symmetry_equiv_pos_as_xyz
1 x,y,z
2 -x,-y,z+1/2
3 -x,y+1/2,-z+1/2
4 x,-y+1/2,-z
5 -x,-y,-z
6 x,y,-z+1/2
7 x,-y+1/2,z+1/2
8 -x,y+1/2,z
loop_
_atom_site_label
_atom_site_type_symbol
_atom_site_fract_x
_atom_site_fract_y
_atom_site_fract_z
_atom_site_fftype
_atom_site_charge
_atom_site_hybridization
C1_0 C 0.2226967880 0.0528313558 0.7500000000 C4 -0.2673638110 SP3
H1_0 H 0.1734543267 -0.0622901470 0.6124451593 H 0.1423097670 UNKNOWN
H2_0 H 0.1576475322 0.2644599562 0.7500000000 H 0.1423097670 UNKNOWN
O1_0 O 0.4199183620 0.0879650163 0.7500000000 O2 -0.5855322470 SP3
H4_0 H 0.4825568311 -0.1035002372 0.7500000000 H 0.4259667570 UNKNOWN
#END
