#############################################
# Avant-garde Materials Simulation           
#############################################

data_g235
_cell_length_a 4.4533972119
_cell_length_b 6.6021165093
_cell_length_c 7.1767118582
_cell_angle_alpha 90.0000000000
_cell_angle_beta 90.0000000000
_cell_angle_gamma 90.0000000000
_cell_volume 211.0085858484
_exptl_crystal_density_diffrn 1.0086339600
_total_energy -2838.8916357973
_electrostatic_energy 0.0000000000
_vdw_energy -24.8099901394
_bond_energy 0.0000000000
_angle_energy 0.0000000000
_stretch_bend_coupling_energy 0.0000000000
_torsion_energy 0.0000000000
_inversion_energy 0.0000000000
_last_operation minimize_crystal_energy
_last_operation_comment none
_symmetry_cell_setting orthorhombic
_symmetry_space_group_name_H-M 'P 2_1 2_1 2'
_symmetry_Int_Tables_number 18
loop_
_symmetry_equiv_pos_site_id
_symmetry_equiv_pos_as_xyz
1 x,y,z
2 -x,-y,z
3 -x+1/2,y+1/2,-z
4 x+1/2,-y+1/2,-z
loop_
_atom_site_label
_atom_site_type_symbol
_atom_site_fract_x
_atom_site_fract_y
_atom_site_fract_z
_atom_site_fftype
_atom_site_charge
_atom_site_hybridization
C1_0 C 0.7508714871 0.7442390369 0.2294455064 C4 -0.2673638110 SP3
H1_0 H 0.9571412569 0.6864301552 0.1644316659 H 0.1423097670 UNKNOWN
H2_0 H 0.7431083536 0.9100726687 0.2099305723 H 0.1423097670 UNKNOWN
H3_0 H 0.5570439987 0.6763728747 0.1568463804 H 0.1423097670 UNKNOWN
O1_0 O 0.7552486405 0.6887663511 0.4206867563 O2 -0.5855322470 SP3
H4_0 H 0.5615011274 0.7362400019 0.4798403475 H 0.4259667570 UNKNOWN
#END
