#############################################
# Avant-garde Materials Simulation           
#############################################

data_g209
_cell_length_a 7.1047881497
_cell_length_b 7.1047881497
_cell_length_c 4.4839479014
_cell_angle_alpha 90.0000000000
_cell_angle_beta 90.0000000000
_cell_angle_gamma 90.0000000000
_cell_volume 226.3407878652
_exptl_crystal_density_diffrn 0.9403096435
_total_energy -2842.4030893569
_electrostatic_energy 0.0000000000
_vdw_energy -23.0530375120
_bond_energy 0.0000000000
_angle_energy 0.0000000000
_stretch_bend_coupling_energy 0.0000000000
_torsion_energy 0.0000000000
_inversion_energy 0.0000000000
_last_operation minimize_crystal_energy
_last_operation_comment none
_symmetry_cell_setting tetragonal
_symmetry_space_group_name_H-M 'P 4_1'
_symmetry_Int_Tables_number 76
loop_
_symmetry_equiv_pos_site_id
_symmetry_equiv_pos_as_xyz
1 x,y,z
2 -x,-y,z+1/2
3 -y,x,z+1/4
4 y,-x,z+3/4
loop_
_atom_site_label
_atom_site_type_symbol
_atom_site_fract_x
_atom_site_fract_y
_atom_site_fract_z
_atom_site_fftype
_atom_site_charge
_atom_site_hybridization
C1_0 C -0.3441569742 0.1656127822 -0.0246356006 C4 -0.2673638110 SP3
H1_0 H -0.2734889659 0.1873686472 0.1910287604 H 0.1423097670 UNKNOWN
H2_0 H -0.4788204504 0.0925843340 0.0129698575 H 0.1423097670 UNKNOWN
H3_0 H -0.3733957420 0.3035124169 -0.1252637245 H 0.1423097670 UNKNOWN
O1_0 O -0.2272970006 0.0627274312 -0.2285702703 O2 -0.5855322470 SP3
H4_0 H -0.1725709337 -0.0506349380 -0.1230382859 H 0.4259667570 UNKNOWN
#END
