#############################################
# Avant-garde Materials Simulation           
#############################################

data_g1548
_cell_length_a 6.7353002859
_cell_length_b 8.7366119425
_cell_length_c 7.4022234375
_cell_angle_alpha 90.0000000000
_cell_angle_beta 101.7039157757
_cell_angle_gamma 90.0000000000
_cell_volume 426.5182052792
_exptl_crystal_density_diffrn 0.9979898767
_total_energy -5682.7698978690
_electrostatic_energy 0.0000000000
_vdw_energy -48.5654050760
_bond_energy 0.0000000000
_angle_energy 0.0000000000
_stretch_bend_coupling_energy 0.0000000000
_torsion_energy 0.0000000000
_inversion_energy 0.0000000000
_last_operation minimize_crystal_energy
_last_operation_comment none
_symmetry_cell_setting monoclinic
_symmetry_space_group_name_H-M 'C c'
_symmetry_Int_Tables_number 9
loop_
_symmetry_equiv_pos_site_id
_symmetry_equiv_pos_as_xyz
1 x,y,z
2 x,-y,z+1/2
3 x+1/2,y+1/2,z
4 x+1/2,-y+1/2,z+1/2
loop_
_atom_site_label
_atom_site_type_symbol
_atom_site_fract_x
_atom_site_fract_y
_atom_site_fract_z
_atom_site_fftype
_atom_site_charge
_atom_site_hybridization
C1_0 C -0.6832698091 -0.1151366912 -0.8371743720 C4 -0.2673638110 SP3
H1_0 H -0.5281882751 -0.1599134635 -0.7978300893 H 0.1423097670 UNKNOWN
H2_0 H -0.6792888466 0.0107840979 -0.8271990166 H 0.1423097670 UNKNOWN
H3_0 H -0.7431038150 -0.1467182276 -0.9821264205 H 0.1423097670 UNKNOWN
O1_0 O -0.8041861378 -0.1796968774 -0.7180617994 O2 -0.5855322470 SP3
H4_0 H -0.9497337781 -0.1815183169 -0.7859206136 H 0.4259667570 UNKNOWN
H4_1 H -0.7205235200 -0.2700060592 -0.5230022017 H 0.4259667570 UNKNOWN
O1_1 O -0.6798527856 -0.3336245650 -0.4084392995 O2 -0.5855322470 SP3
C1_1 C -0.7147408290 -0.4912277409 -0.4603775354 C4 -0.2673638110 SP3
H1_1 H -0.7080716452 -0.5584999513 -0.3344807870 H 0.1423097670 UNKNOWN
H2_1 H -0.5998541966 -0.5352841654 -0.5338989269 H 0.1423097670 UNKNOWN
H3_1 H -0.8657916007 -0.5063375889 -0.5484708411 H 0.1423097670 UNKNOWN
#END
