#############################################
# Avant-garde Materials Simulation           
#############################################

data_g1373
_cell_length_a 11.2650366724
_cell_length_b 6.5409908424
_cell_length_c 6.4971708487
_cell_angle_alpha 90.0000000000
_cell_angle_beta 59.5447238402
_cell_angle_gamma 90.0000000000
_cell_volume 412.6865692770
_exptl_crystal_density_diffrn 1.0314385851
_total_energy -5690.1984281723
_electrostatic_energy 0.0000000000
_vdw_energy -50.4862269264
_bond_energy 0.0000000000
_angle_energy 0.0000000000
_stretch_bend_coupling_energy 0.0000000000
_torsion_energy 0.0000000000
_inversion_energy 0.0000000000
_last_operation minimize_crystal_energy
_last_operation_comment none
_symmetry_cell_setting monoclinic
_symmetry_space_group_name_H-M 'C c'
_symmetry_Int_Tables_number 9
loop_
_symmetry_equiv_pos_site_id
_symmetry_equiv_pos_as_xyz
1 x,y,z
2 x,-y,z+1/2
3 x+1/2,y+1/2,z
4 x+1/2,-y+1/2,z+1/2
loop_
_atom_site_label
_atom_site_type_symbol
_atom_site_fract_x
_atom_site_fract_y
_atom_site_fract_z
_atom_site_fftype
_atom_site_charge
_atom_site_hybridization
C1_0 C -0.5418188697 0.2108855838 -0.4359198671 C4 -0.2673638110 SP3
H1_0 H -0.5435625494 0.0465586575 -0.4006365950 H 0.1423097670 UNKNOWN
H2_0 H -0.4465336668 0.2770291731 -0.4562193055 H 0.1423097670 UNKNOWN
H3_0 H -0.5420801075 0.2316654737 -0.6038129786 H 0.1423097670 UNKNOWN
O1_0 O -0.6627560412 0.3004065286 -0.2396648985 O2 -0.5855322470 SP3
H4_0 H -0.6667439825 0.4497327182 -0.2765835528 H 0.4259667570 UNKNOWN
H2_1 H -0.3906647309 0.2226945847 -0.1322584276 H 0.1423097670 UNKNOWN
C1_1 C -0.2970486312 0.2882503055 -0.1453483633 C4 -0.2673638110 SP3
H1_1 H -0.3013953252 0.2660500494 0.0257969787 H 0.1423097670 UNKNOWN
H3_1 H -0.2941915114 0.4534216191 -0.1797118835 H 0.1423097670 UNKNOWN
O1_1 O -0.1743587908 0.1898977226 -0.3267933374 O2 -0.5855322470 SP3
H4_1 H -0.1702363739 0.2024389315 -0.4855698828 H 0.4259667570 UNKNOWN
#END
