#############################################
# Avant-garde Materials Simulation           
#############################################

data_g1502
_cell_length_a 5.3238927457
_cell_length_b 4.6896870308
_cell_length_c 8.6141033866
_cell_angle_alpha 90.0000000000
_cell_angle_beta 90.3512064636
_cell_angle_gamma 90.0000000000
_cell_volume 215.0676448587
_exptl_crystal_density_diffrn 0.9895976017
_total_energy -2843.7658562774
_electrostatic_energy 0.0000000000
_vdw_energy -24.3186074850
_bond_energy 0.0000000000
_angle_energy 0.0000000000
_stretch_bend_coupling_energy 0.0000000000
_torsion_energy 0.0000000000
_inversion_energy 0.0000000000
_last_operation minimize_crystal_energy
_last_operation_comment none
_symmetry_cell_setting monoclinic
_symmetry_space_group_name_H-M 'P c'
_symmetry_Int_Tables_number 7
loop_
_symmetry_equiv_pos_site_id
_symmetry_equiv_pos_as_xyz
1 x,y,z
2 x,-y,z+1/2
loop_
_atom_site_label
_atom_site_type_symbol
_atom_site_fract_x
_atom_site_fract_y
_atom_site_fract_z
_atom_site_fftype
_atom_site_charge
_atom_site_hybridization
C1_0 C -0.3889247202 0.9102933499 0.5451604226 C4 -0.2673638110 SP3
H1_0 H -0.2973390255 0.9737784701 0.6543252136 H 0.1423097670 UNKNOWN
H2_0 H -0.2639027731 0.9674668893 0.4486756224 H 0.1423097670 UNKNOWN
H3_0 H -0.4161239595 0.6769903808 0.5454699784 H 0.1423097670 UNKNOWN
O1_0 O -0.6239266042 1.0580418596 0.5332377479 O2 -0.5855322470 SP3
H4_0 H -0.7174083370 0.9839601475 0.4391321414 H 0.4259667570 UNKNOWN
H4_1 H -0.7796908139 1.0973502602 0.6887694904 H 0.4259667570 UNKNOWN
O1_1 O -0.8673712456 1.1394807209 0.7901785343 O2 -0.5855322470 SP3
C1_1 C -0.9170507324 1.4395996458 0.7958745002 C4 -0.2673638110 SP3
H1_1 H -0.9502757598 1.5001708088 0.9170173202 H 0.1423097670 UNKNOWN
H2_1 H -1.0850348305 1.4944829790 0.7267976081 H 0.1423097670 UNKNOWN
H3_1 H -0.7566017271 1.5635515206 0.7529259364 H 0.1423097670 UNKNOWN
#END
