#############################################
# Avant-garde Materials Simulation           
#############################################

data_g983
_cell_length_a 3.9152580206
_cell_length_b 6.9099547731
_cell_length_c 8.1413046037
_cell_angle_alpha 71.6055552778
_cell_angle_beta 75.9788921430
_cell_angle_gamma 79.1603482773
_cell_volume 201.2807588855
_exptl_crystal_density_diffrn 1.0573808779
_total_energy -2840.4777814063
_electrostatic_energy 0.0000000000
_vdw_energy -26.4224877896
_bond_energy 0.0000000000
_angle_energy 0.0000000000
_stretch_bend_coupling_energy 0.0000000000
_torsion_energy 0.0000000000
_inversion_energy 0.0000000000
_last_operation minimize_crystal_energy
_last_operation_comment none
_symmetry_cell_setting triclinic
_symmetry_space_group_name_H-M 'P -1'
_symmetry_Int_Tables_number 2
loop_
_symmetry_equiv_pos_site_id
_symmetry_equiv_pos_as_xyz
1 x,y,z
2 -x,-y,-z
loop_
_atom_site_label
_atom_site_type_symbol
_atom_site_fract_x
_atom_site_fract_y
_atom_site_fract_z
_atom_site_fftype
_atom_site_charge
_atom_site_hybridization
C1_0 C 0.6243593135 0.3089776232 0.6964026242 C4 -0.2673638110 SP3
H1_0 H 0.7472200021 0.3986829466 0.7520534449 H 0.1423097670 UNKNOWN
H2_0 H 0.5245698867 0.1755327336 0.8019326869 H 0.1423097670 UNKNOWN
H3_0 H 0.3989111614 0.4065603457 0.6426745703 H 0.1423097670 UNKNOWN
O1_0 O 0.8709759440 0.2469199315 0.5558618502 O2 -0.5855322470 SP3
H4_0 H 1.0339306900 0.1241143379 0.6077702061 H 0.4259667570 UNKNOWN
H4_1 H 0.7420319280 0.1660016500 0.4122343207 H 0.4259667570 UNKNOWN
O1_1 O 0.7275853841 0.1058386187 0.3166266513 O2 -0.5855322470 SP3
C1_1 C 0.9149977635 0.2265887608 0.1541884690 C4 -0.2673638110 SP3
H1_1 H 0.7703921541 0.3814317053 0.1124858820 H 0.1423097670 UNKNOWN
H2_1 H 0.9360909595 0.1500510727 0.0520089937 H 0.1423097670 UNKNOWN
H3_1 H 1.1833563393 0.2409277258 0.1652124612 H 0.1423097670 UNKNOWN
#END
