#############################################
# Avant-garde Materials Simulation           
#############################################

data_g131
_cell_length_a 10.3809922100
_cell_length_b 10.3809922100
_cell_length_c 3.7074495978
_cell_angle_alpha 90.0000000000
_cell_angle_beta 90.0000000000
_cell_angle_gamma 90.0000000000
_cell_volume 399.5333031813
_exptl_crystal_density_diffrn 1.0653951691
_total_energy -5670.8423299015
_electrostatic_energy 0.0000000000
_vdw_energy -54.3153774928
_bond_energy 0.0000000000
_angle_energy 0.0000000000
_stretch_bend_coupling_energy 0.0000000000
_torsion_energy 0.0000000000
_inversion_energy 0.0000000000
_last_operation minimize_crystal_energy
_last_operation_comment none
_symmetry_cell_setting tetragonal
_symmetry_space_group_name_H-M 'I 4'
_symmetry_Int_Tables_number 79
loop_
_symmetry_equiv_pos_site_id
_symmetry_equiv_pos_as_xyz
1 x,y,z
2 -x,-y,z
3 -y,x,z
4 y,-x,z
5 x+1/2,y+1/2,z+1/2
6 -x+1/2,-y+1/2,z+1/2
7 -y+1/2,x+1/2,z+1/2
8 y+1/2,-x+1/2,z+1/2
loop_
_atom_site_label
_atom_site_type_symbol
_atom_site_fract_x
_atom_site_fract_y
_atom_site_fract_z
_atom_site_fftype
_atom_site_charge
_atom_site_hybridization
C1_0 C -0.2589840785 -0.5721633986 0.1337946839 C4 -0.2673638110 SP3
H1_0 H -0.2266905524 -0.6589880798 0.2779200267 H 0.1423097670 UNKNOWN
H2_0 H -0.3233687508 -0.6007159544 -0.0885917830 H 0.1423097670 UNKNOWN
H3_0 H -0.3132995054 -0.5112179409 0.3217849904 H 0.1423097670 UNKNOWN
O1_0 O -0.1525420336 -0.4978986925 0.0061493147 O2 -0.5855322470 SP3
H4_0 H -0.1001040111 -0.5520985689 -0.1573261448 H 0.4259667570 UNKNOWN
#END
