#############################################
# Avant-garde Materials Simulation           
#############################################

data_g198
_cell_length_a 9.9597748454
_cell_length_b 9.9597748454
_cell_length_c 4.8025119553
_cell_angle_alpha 90.0000000000
_cell_angle_beta 90.0000000000
_cell_angle_gamma 90.0000000000
_cell_volume 476.3953305804
_exptl_crystal_density_diffrn 0.8935034073
_total_energy -5678.3662345628
_electrostatic_energy 0.0000000000
_vdw_energy -44.4826452622
_bond_energy 0.0000000000
_angle_energy 0.0000000000
_stretch_bend_coupling_energy 0.0000000000
_torsion_energy 0.0000000000
_inversion_energy 0.0000000000
_last_operation minimize_crystal_energy
_last_operation_comment none
_symmetry_cell_setting tetragonal
_symmetry_space_group_name_H-M 'I -4'
_symmetry_Int_Tables_number 82
loop_
_symmetry_equiv_pos_site_id
_symmetry_equiv_pos_as_xyz
1 x,y,z
2 -x,-y,z
3 y,-x,-z
4 -y,x,-z
5 x+1/2,y+1/2,z+1/2
6 -x+1/2,-y+1/2,z+1/2
7 y+1/2,-x+1/2,-z+1/2
8 -y+1/2,x+1/2,-z+1/2
loop_
_atom_site_label
_atom_site_type_symbol
_atom_site_fract_x
_atom_site_fract_y
_atom_site_fract_z
_atom_site_fftype
_atom_site_charge
_atom_site_hybridization
C1_0 C 0.2672213653 0.0947029550 -1.4508247929 C4 -0.2673638110 SP3
H1_0 H 0.1716588076 0.0404393671 -1.4348258496 H 0.1423097670 UNKNOWN
H2_0 H 0.2479452518 0.2029798582 -1.4288964409 H 0.1423097670 UNKNOWN
H3_0 H 0.3321302420 0.0617600089 -1.2782522640 H 0.1423097670 UNKNOWN
O1_0 O 0.3245156115 0.0648809781 -1.7180617287 O2 -0.5855322470 SP3
H4_0 H 0.4106942454 0.1170172606 -1.7394237810 H 0.4259667570 UNKNOWN
#END
