#############################################
# Avant-garde Materials Simulation           
#############################################

data_g626
_cell_length_a 7.2625818378
_cell_length_b 6.6617062375
_cell_length_c 4.6030729665
_cell_angle_alpha 90.0000000000
_cell_angle_beta 90.0000000000
_cell_angle_gamma 90.0000000000
_cell_volume 222.7021327186
_exptl_crystal_density_diffrn 0.9556730461
_total_energy -2836.6271870241
_electrostatic_energy 0.0000000000
_vdw_energy -22.7361829538
_bond_energy 0.0000000000
_angle_energy 0.0000000000
_stretch_bend_coupling_energy 0.0000000000
_torsion_energy 0.0000000000
_inversion_energy 0.0000000000
_last_operation minimize_crystal_energy
_last_operation_comment none
_symmetry_cell_setting orthorhombic
_symmetry_space_group_name_H-M 'A e m 2'
_symmetry_Int_Tables_number 39
loop_
_symmetry_equiv_pos_site_id
_symmetry_equiv_pos_as_xyz
1 x,y,z
2 -x,-y,z
3 x,-y+1/2,z
4 -x,y+1/2,z
5 x,y+1/2,z+1/2
6 -x,-y+1/2,z+1/2
7 x,-y,z+1/2
8 -x,y,z+1/2
loop_
_atom_site_label
_atom_site_type_symbol
_atom_site_fract_x
_atom_site_fract_y
_atom_site_fract_z
_atom_site_fftype
_atom_site_charge
_atom_site_hybridization
C1_0 C 0.2777198935 -0.2500000000 0.6781610877 C4 -0.2673638110 SP3
H1_0 H 0.3524950255 -0.2500000000 0.8856741999 H 0.1423097670 UNKNOWN
H2_0 H 0.3193291725 -0.1154076644 0.5544619588 H 0.1423097670 UNKNOWN
O1_0 O 0.0864430375 -0.2500000000 0.7389753649 O2 -0.5855322470 SP3
H4_0 H 0.0159069954 -0.2500000000 0.5514781727 H 0.4259667570 UNKNOWN
#END
