#############################################
# Avant-garde Materials Simulation           
#############################################

data_g239
_cell_length_a 14.7590468477
_cell_length_b 6.9012121007
_cell_length_c 4.4927547876
_cell_angle_alpha 90.0000000000
_cell_angle_beta 90.0000000000
_cell_angle_gamma 90.0000000000
_cell_volume 457.6109437790
_exptl_crystal_density_diffrn 0.9301806630
_total_energy -5673.2986335578
_electrostatic_energy 0.0000000000
_vdw_energy -45.1506160296
_bond_energy 0.0000000000
_angle_energy 0.0000000000
_stretch_bend_coupling_energy 0.0000000000
_torsion_energy 0.0000000000
_inversion_energy 0.0000000000
_last_operation minimize_crystal_energy
_last_operation_comment none
_symmetry_cell_setting orthorhombic
_symmetry_space_group_name_H-M 'I b a 2'
_symmetry_Int_Tables_number 45
loop_
_symmetry_equiv_pos_site_id
_symmetry_equiv_pos_as_xyz
1 x,y,z
2 -x,-y,z
3 x+1/2,-y+1/2,z
4 -x+1/2,y+1/2,z
5 x+1/2,y+1/2,z+1/2
6 -x+1/2,-y+1/2,z+1/2
7 x,-y,z+1/2
8 -x,y,z+1/2
loop_
_atom_site_label
_atom_site_type_symbol
_atom_site_fract_x
_atom_site_fract_y
_atom_site_fract_z
_atom_site_fftype
_atom_site_charge
_atom_site_hybridization
C1_0 C 0.1358831628 -0.2444751267 0.9971819226 C4 -0.2673638110 SP3
H1_0 H 0.1762546846 -0.2438137149 1.2026793880 H 0.1423097670 UNKNOWN
H2_0 H 0.1375034437 -0.0976756702 0.8999005950 H 0.1423097670 UNKNOWN
H3_0 H 0.1675975554 -0.3463586730 0.8388120715 H 0.1423097670 UNKNOWN
O1_0 O 0.0466275162 -0.3039316502 1.0705134754 O2 -0.5855322470 SP3
H4_0 H 0.0088021119 -0.3061156751 0.8850007301 H 0.4259667570 UNKNOWN
#END
