#############################################
# Avant-garde Materials Simulation           
#############################################

data_g154
_cell_length_a 11.4488787069
_cell_length_b 11.4488787069
_cell_length_c 4.3058059226
_cell_angle_alpha 90.0000000000
_cell_angle_beta 90.0000000000
_cell_angle_gamma 120.0000000000
_cell_volume 488.7772585256
_exptl_crystal_density_diffrn 0.9797273689
_total_energy -6390.5416867111
_electrostatic_energy 0.0000000000
_vdw_energy -54.4297835672
_bond_energy 0.0000000000
_angle_energy 0.0000000000
_stretch_bend_coupling_energy 0.0000000000
_torsion_energy 0.0000000000
_inversion_energy 0.0000000000
_last_operation minimize_crystal_energy
_last_operation_comment none
_symmetry_cell_setting hexagonal
_symmetry_space_group_name_H-M 'R 3'
_symmetry_Int_Tables_number 146
loop_
_symmetry_equiv_pos_site_id
_symmetry_equiv_pos_as_xyz
1 x,y,z
2 -y,x-y,z
3 -x+y,-x,z
4 x+2/3,y+1/3,z+1/3
5 -y+2/3,x-y+1/3,z+1/3
6 -x+y+2/3,-x+1/3,z+1/3
7 x+1/3,y+2/3,z+2/3
8 -y+1/3,x-y+2/3,z+2/3
9 -x+y+1/3,-x+2/3,z+2/3
loop_
_atom_site_label
_atom_site_type_symbol
_atom_site_fract_x
_atom_site_fract_y
_atom_site_fract_z
_atom_site_fftype
_atom_site_charge
_atom_site_hybridization
C1_0 C 0.4330317647 -0.1108746667 -0.2302187407 C4 -0.2673638110 SP3
H1_0 H 0.3535255945 -0.1772921283 -0.0677437344 H 0.1423097670 UNKNOWN
H2_0 H 0.4580114026 -0.1725317822 -0.3826211688 H 0.1423097670 UNKNOWN
H3_0 H 0.3945821248 -0.0582431103 -0.3747439954 H 0.1423097670 UNKNOWN
O1_0 O 0.5469905625 -0.0179364613 -0.0489609978 O2 -0.5855322470 SP3
H4_0 H 0.6248090762 0.0407338844 -0.1902793892 H 0.4259667570 UNKNOWN
#END
