#############################################
# Avant-garde Materials Simulation           
#############################################

data_g111
_cell_length_a 7.0960460969
_cell_length_b 4.3216797417
_cell_length_c 7.3871414560
_cell_angle_alpha 90.0000000000
_cell_angle_beta 109.2463195657
_cell_angle_gamma 90.0000000000
_cell_volume 213.8789837129
_exptl_crystal_density_diffrn 0.9950974231
_total_energy -2842.8366063945
_electrostatic_energy 0.0000000000
_vdw_energy -24.6742010910
_bond_energy 0.0000000000
_angle_energy 0.0000000000
_stretch_bend_coupling_energy 0.0000000000
_torsion_energy 0.0000000000
_inversion_energy 0.0000000000
_last_operation minimize_crystal_energy
_last_operation_comment none
_symmetry_cell_setting monoclinic
_symmetry_space_group_name_H-M 'C 2'
_symmetry_Int_Tables_number 5
loop_
_symmetry_equiv_pos_site_id
_symmetry_equiv_pos_as_xyz
1 x,y,z
2 -x,y,-z
3 x+1/2,y+1/2,z
4 -x+1/2,y+1/2,-z
loop_
_atom_site_label
_atom_site_type_symbol
_atom_site_fract_x
_atom_site_fract_y
_atom_site_fract_z
_atom_site_fftype
_atom_site_charge
_atom_site_hybridization
C1_0 C 0.7745457693 0.3289138730 0.7380347286 C4 -0.2673638110 SP3
H1_0 H 0.8106629610 0.5620817198 0.7002311543 H 0.1423097670 UNKNOWN
H2_0 H 0.6604762349 0.2271718563 0.6120200324 H 0.1423097670 UNKNOWN
H3_0 H 0.9101519097 0.1858592592 0.7756229804 H 0.1423097670 UNKNOWN
O1_0 O 0.7001971730 0.3541540917 0.8957355689 O2 -0.5855322470 SP3
H4_0 H 0.7311318454 0.1557994377 0.9726038706 H 0.4259667570 UNKNOWN
#END
