#############################################
# Avant-garde Materials Simulation           
#############################################

data_g927
_cell_length_a 4.7866532490
_cell_length_b 6.3852762283
_cell_length_c 7.0290992428
_cell_angle_alpha 93.3474063537
_cell_angle_beta 82.2449779833
_cell_angle_gamma 95.1725613032
_cell_volume 211.7736174129
_exptl_crystal_density_diffrn 1.0049902728
_total_energy -2842.6303144932
_electrostatic_energy 0.0000000000
_vdw_energy -24.7654508302
_bond_energy 0.0000000000
_angle_energy 0.0000000000
_stretch_bend_coupling_energy 0.0000000000
_torsion_energy 0.0000000000
_inversion_energy 0.0000000000
_last_operation minimize_crystal_energy
_last_operation_comment none
_symmetry_cell_setting triclinic
_symmetry_space_group_name_H-M 'P -1'
_symmetry_Int_Tables_number 2
loop_
_symmetry_equiv_pos_site_id
_symmetry_equiv_pos_as_xyz
1 x,y,z
2 -x,-y,-z
loop_
_atom_site_label
_atom_site_type_symbol
_atom_site_fract_x
_atom_site_fract_y
_atom_site_fract_z
_atom_site_fftype
_atom_site_charge
_atom_site_hybridization
C1_0 C 0.4096311712 0.2203051278 0.7930198862 C4 -0.2673638110 SP3
H1_0 H 0.5007691442 0.2475500884 0.6438035498 H 0.1423097670 UNKNOWN
H2_0 H 0.4056024878 0.0513611937 0.8173426107 H 0.1423097670 UNKNOWN
H3_0 H 0.5452910182 0.3094559985 0.8894472455 H 0.1423097670 UNKNOWN
O1_0 O 0.1281872741 0.2880732844 0.8200088573 O2 -0.5855322470 SP3
H4_0 H 0.0472146692 0.2742338032 0.9591785215 H 0.4259667570 UNKNOWN
H4_1 H 0.1097677660 0.5435419483 0.7994723756 H 0.4259667570 UNKNOWN
O1_1 O 0.0932182954 0.7000243087 0.8127535519 O2 -0.5855322470 SP3
C1_1 C -0.0789249959 0.7591614579 0.6754101270 C4 -0.2673638110 SP3
H1_1 H -0.0806964823 0.9310697485 0.6878485423 H 0.1423097670 UNKNOWN
H2_1 H -0.2985637442 0.6886822868 0.7039869445 H 0.1423097670 UNKNOWN
H3_1 H 0.0091277312 0.7130033995 0.5278090290 H 0.1423097670 UNKNOWN
#END
