#############################################
# Avant-garde Materials Simulation           
#############################################

data_g277
_cell_length_a 17.2042703165
_cell_length_b 12.4729432507
_cell_length_c 4.2682892231
_cell_angle_alpha 90.0000000000
_cell_angle_beta 90.0000000000
_cell_angle_gamma 90.0000000000
_cell_volume 915.9231668822
_exptl_crystal_density_diffrn 0.9294684674
_total_energy -11362.4742425448
_electrostatic_energy 0.0000000000
_vdw_energy -89.7100270041
_bond_energy 0.0000000000
_angle_energy 0.0000000000
_stretch_bend_coupling_energy 0.0000000000
_torsion_energy 0.0000000000
_inversion_energy 0.0000000000
_last_operation minimize_crystal_energy
_last_operation_comment none
_symmetry_cell_setting orthorhombic
_symmetry_space_group_name_H-M 'F d d 2'
_symmetry_Int_Tables_number 43
loop_
_symmetry_equiv_pos_site_id
_symmetry_equiv_pos_as_xyz
1 x,y,z
2 -x,-y,z
3 x+1/4,-y+1/4,z+1/4
4 -x+1/4,y+1/4,z+1/4
5 x,y+1/2,z+1/2
6 -x,-y+1/2,z+1/2
7 x+1/4,-y+3/4,z+3/4
8 -x+1/4,y+3/4,z+3/4
9 x+1/2,y,z+1/2
10 -x+1/2,-y,z+1/2
11 x+3/4,-y+1/4,z+3/4
12 -x+3/4,y+1/4,z+3/4
13 x+1/2,y+1/2,z
14 -x+1/2,-y+1/2,z
15 x+3/4,-y+3/4,z+1/4
16 -x+3/4,y+3/4,z+1/4
loop_
_atom_site_label
_atom_site_type_symbol
_atom_site_fract_x
_atom_site_fract_y
_atom_site_fract_z
_atom_site_fftype
_atom_site_charge
_atom_site_hybridization
C1_0 C -0.6827522943 -0.3692419715 -1.2328628666 C4 -0.2673638110 SP3
H1_0 H -0.6744681091 -0.3370250839 -1.4700141314 H 0.1423097670 UNKNOWN
H2_0 H -0.6290409064 -0.4102229303 -1.1612692169 H 0.1423097670 UNKNOWN
H3_0 H -0.6925938452 -0.3013236264 -1.0723833604 H 0.1423097670 UNKNOWN
O1_0 O -0.7484849344 -0.4396388883 -1.2393194000 O2 -0.5855322470 SP3
H4_0 H -0.7495800767 -0.4834415664 -1.0395128709 H 0.4259667570 UNKNOWN
#END
