#############################################
# Avant-garde Materials Simulation           
#############################################

data_g948
_cell_length_a 4.0425535138
_cell_length_b 6.4389539482
_cell_length_c 8.4187290375
_cell_angle_alpha 79.3373418774
_cell_angle_beta 71.7005688929
_cell_angle_gamma 96.9918523854
_cell_volume 200.6301858570
_exptl_crystal_density_diffrn 1.0608095917
_total_energy -2841.4758996212
_electrostatic_energy 0.0000000000
_vdw_energy -26.4337775350
_bond_energy 0.0000000000
_angle_energy 0.0000000000
_stretch_bend_coupling_energy 0.0000000000
_torsion_energy 0.0000000000
_inversion_energy 0.0000000000
_last_operation minimize_crystal_energy
_last_operation_comment none
_symmetry_cell_setting triclinic
_symmetry_space_group_name_H-M 'P -1'
_symmetry_Int_Tables_number 2
loop_
_symmetry_equiv_pos_site_id
_symmetry_equiv_pos_as_xyz
1 x,y,z
2 -x,-y,-z
loop_
_atom_site_label
_atom_site_type_symbol
_atom_site_fract_x
_atom_site_fract_y
_atom_site_fract_z
_atom_site_fftype
_atom_site_charge
_atom_site_hybridization
C1_0 C 0.4094678273 0.1820118445 0.3210430586 C4 -0.2673638110 SP3
H1_0 H 0.2642357078 0.0167271738 0.3829765811 H 0.1423097670 UNKNOWN
H2_0 H 0.6808324551 0.1933485975 0.3243335432 H 0.1423097670 UNKNOWN
H3_0 H 0.4221684514 0.2179525392 0.1857578944 H 0.1423097670 UNKNOWN
O1_0 O 0.2246224661 0.3253943098 0.4119385442 O2 -0.5855322470 SP3
H4_0 H 0.3744935599 0.4740304932 0.3600781099 H 0.4259667570 UNKNOWN
H4_1 H 0.2578210344 0.2933776382 0.6079811455 H 0.4259667570 UNKNOWN
O1_1 O 0.3323652471 0.2913188740 0.7114749494 O2 -0.5855322470 SP3
C1_1 C 0.0299232386 0.2758988815 0.8605411779 C4 -0.2673638110 SP3
H1_1 H -0.0871858347 0.4216170138 0.8514172681 H 0.1423097670 UNKNOWN
H2_1 H 0.1177944552 0.2560667890 0.9723934723 H 0.1423097670 UNKNOWN
H3_1 H -0.1766150104 0.1357569113 0.8806576927 H 0.1423097670 UNKNOWN
#END
