#############################################
# Avant-garde Materials Simulation           
#############################################

data_g1207
_cell_length_a 15.8453346324
_cell_length_b 4.1323501042
_cell_length_c 6.5203734895
_cell_angle_alpha 90.0000000000
_cell_angle_beta 79.9929888128
_cell_angle_gamma 90.0000000000
_cell_volume 420.4487661262
_exptl_crystal_density_diffrn 1.0123964806
_total_energy -5684.0113095424
_electrostatic_energy 0.0000000000
_vdw_energy -49.7634139990
_bond_energy 0.0000000000
_angle_energy 0.0000000000
_stretch_bend_coupling_energy 0.0000000000
_torsion_energy 0.0000000000
_inversion_energy 0.0000000000
_last_operation minimize_crystal_energy
_last_operation_comment none
_symmetry_cell_setting monoclinic
_symmetry_space_group_name_H-M 'C 2'
_symmetry_Int_Tables_number 5
loop_
_symmetry_equiv_pos_site_id
_symmetry_equiv_pos_as_xyz
1 x,y,z
2 -x,y,-z
3 x+1/2,y+1/2,z
4 -x+1/2,y+1/2,-z
loop_
_atom_site_label
_atom_site_type_symbol
_atom_site_fract_x
_atom_site_fract_y
_atom_site_fract_z
_atom_site_fftype
_atom_site_charge
_atom_site_hybridization
C1_0 C 0.3456176644 0.8601988821 0.8331698975 C4 -0.2673638110 SP3
H1_0 H 0.3369862816 1.1209391195 0.8090768040 H 0.1423097670 UNKNOWN
H2_0 H 0.4140715293 0.8003631755 0.7912335022 H 0.1423097670 UNKNOWN
H3_0 H 0.3245010725 0.8007880370 0.9986654561 H 0.1423097670 UNKNOWN
O1_0 O 0.2999714575 0.6711187939 0.7035859672 O2 -0.5855322470 SP3
H4_0 H 0.2420415223 0.7718886569 0.7044115181 H 0.4259667570 UNKNOWN
H3_1 H 0.4329097819 1.1602714234 1.1414299763 H 0.1423097670 UNKNOWN
C1_1 C 0.4243298908 1.2766924044 1.2948423982 C4 -0.2673638110 SP3
H1_1 H 0.4221842066 1.0861784221 1.4138549750 H 0.1423097670 UNKNOWN
H2_1 H 0.4801269472 1.4339050838 1.3006326814 H 0.1423097670 UNKNOWN
O1_1 O 0.3468370778 1.4595527071 1.3206906675 O2 -0.5855322470 SP3
H4_1 H 0.3344851159 1.5509488330 1.4663086521 H 0.4259667570 UNKNOWN
#END
