#############################################
# Avant-garde Materials Simulation           
#############################################

data_g335
_cell_length_a 15.0630082582
_cell_length_b 4.6738290173
_cell_length_c 6.5796364551
_cell_angle_alpha 90.0000000000
_cell_angle_beta 90.0000000000
_cell_angle_gamma 90.0000000000
_cell_volume 463.2190727996
_exptl_crystal_density_diffrn 0.9189190948
_total_energy -5671.3148115303
_electrostatic_energy 0.0000000000
_vdw_energy -44.1693769367
_bond_energy 0.0000000000
_angle_energy 0.0000000000
_stretch_bend_coupling_energy 0.0000000000
_torsion_energy 0.0000000000
_inversion_energy 0.0000000000
_last_operation minimize_crystal_energy
_last_operation_comment none
_symmetry_cell_setting orthorhombic
_symmetry_space_group_name_H-M 'C m c m'
_symmetry_Int_Tables_number 63
loop_
_symmetry_equiv_pos_site_id
_symmetry_equiv_pos_as_xyz
1 x,y,z
2 -x,-y,z+1/2
3 -x,y,-z+1/2
4 x,-y,-z
5 -x,-y,-z
6 x,y,-z+1/2
7 x,-y,z+1/2
8 -x,y,z
9 x+1/2,y+1/2,z
10 -x+1/2,-y+1/2,z+1/2
11 -x+1/2,y+1/2,-z+1/2
12 x+1/2,-y+1/2,-z
13 -x+1/2,-y+1/2,-z
14 x+1/2,y+1/2,-z+1/2
15 x+1/2,-y+1/2,z+1/2
16 -x+1/2,y+1/2,z
loop_
_atom_site_label
_atom_site_type_symbol
_atom_site_fract_x
_atom_site_fract_y
_atom_site_fract_z
_atom_site_fftype
_atom_site_charge
_atom_site_hybridization
C1_0 C -0.3817233708 -0.8037486517 0.2500000000 C4 -0.2673638110 SP3
H1_0 H -0.4050969505 -0.6880639726 0.1136585393 H 0.1423097670 UNKNOWN
H3_0 H -0.4123466147 -1.0171065492 0.2500000000 H 0.1423097670 UNKNOWN
O1_0 O -0.2884289197 -0.8385637154 0.2500000000 O2 -0.5855322470 SP3
H4_0 H -0.2585458655 -0.6460304875 0.2500000000 H 0.4259667570 UNKNOWN
#END
