#############################################
# Avant-garde Materials Simulation           
#############################################

data_g22
_cell_length_a 7.1787453914
_cell_length_b 13.4907494739
_cell_length_c 4.6437341176
_cell_angle_alpha 90.0000000000
_cell_angle_beta 90.0000000000
_cell_angle_gamma 90.0000000000
_cell_volume 449.7301188439
_exptl_crystal_density_diffrn 0.9464806408
_total_energy -5680.4578512847
_electrostatic_energy 0.0000000000
_vdw_energy -45.5179463137
_bond_energy 0.0000000000
_angle_energy 0.0000000000
_stretch_bend_coupling_energy 0.0000000000
_torsion_energy 0.0000000000
_inversion_energy 0.0000000000
_last_operation minimize_crystal_energy
_last_operation_comment none
_symmetry_cell_setting orthorhombic
_symmetry_space_group_name_H-M 'A e a 2'
_symmetry_Int_Tables_number 41
loop_
_symmetry_equiv_pos_site_id
_symmetry_equiv_pos_as_xyz
1 x,y,z
2 -x,-y,z
3 x+1/2,-y+1/2,z
4 -x+1/2,y+1/2,z
5 x,y+1/2,z+1/2
6 -x,-y+1/2,z+1/2
7 x+1/2,-y,z+1/2
8 -x+1/2,y,z+1/2
loop_
_atom_site_label
_atom_site_type_symbol
_atom_site_fract_x
_atom_site_fract_y
_atom_site_fract_z
_atom_site_fftype
_atom_site_charge
_atom_site_hybridization
C1_0 C 0.5316468283 0.1349173298 1.0343322211 C4 -0.2673638110 SP3
H1_0 H 0.5924737903 0.1307467023 0.8177997537 H 0.1423097670 UNKNOWN
H2_0 H 0.5880862574 0.0729042419 1.1617806327 H 0.1423097670 UNKNOWN
H3_0 H 0.5754293593 0.2053867888 1.1335241823 H 0.1423097670 UNKNOWN
O1_0 O 0.3340449763 0.1284900893 1.0056991245 O2 -0.5855322470 SP3
H4_0 H 0.2728442920 0.1295041797 1.2001552990 H 0.4259667570 UNKNOWN
#END
