#############################################
# Avant-garde Materials Simulation           
#############################################

data_g213
_cell_length_a 7.0727344831
_cell_length_b 7.0727344831
_cell_length_c 4.4790797381
_cell_angle_alpha 90.0000000000
_cell_angle_beta 90.0000000000
_cell_angle_gamma 90.0000000000
_cell_volume 224.0595725604
_exptl_crystal_density_diffrn 0.9498832079
_total_energy -2842.5605066138
_electrostatic_energy 0.0000000000
_vdw_energy -23.2987654822
_bond_energy 0.0000000000
_angle_energy 0.0000000000
_stretch_bend_coupling_energy 0.0000000000
_torsion_energy 0.0000000000
_inversion_energy 0.0000000000
_last_operation minimize_crystal_energy
_last_operation_comment none
_symmetry_cell_setting tetragonal
_symmetry_space_group_name_H-M 'P 4_1'
_symmetry_Int_Tables_number 76
loop_
_symmetry_equiv_pos_site_id
_symmetry_equiv_pos_as_xyz
1 x,y,z
2 -x,-y,z+1/2
3 -y,x,z+1/4
4 y,-x,z+3/4
loop_
_atom_site_label
_atom_site_type_symbol
_atom_site_fract_x
_atom_site_fract_y
_atom_site_fract_z
_atom_site_fftype
_atom_site_charge
_atom_site_hybridization
C1_0 C -0.8314241597 0.6588586869 -0.1044288210 C4 -0.2673638110 SP3
H1_0 H -0.9073973398 0.5305810502 -0.1720777038 H 0.1423097670 UNKNOWN
H2_0 H -0.7020143440 0.6167929686 0.0153807423 H 0.1423097670 UNKNOWN
H3_0 H -0.7915209929 0.7397239429 -0.3048425149 H 0.1423097670 UNKNOWN
O1_0 O -0.9528189198 0.7665794054 0.0883347445 O2 -0.5855322470 SP3
H4_0 H -0.8759767496 0.8722400366 0.1801242895 H 0.4259667570 UNKNOWN
#END
