#############################################
# Avant-garde Materials Simulation           
#############################################

data_g532
_cell_length_a 13.1863691171
_cell_length_b 7.5136461162
_cell_length_c 4.3596757786
_cell_angle_alpha 90.0000000000
_cell_angle_beta 90.0000000000
_cell_angle_gamma 90.0000000000
_cell_volume 431.9466972956
_exptl_crystal_density_diffrn 0.9854476345
_total_energy -5687.3534371445
_electrostatic_energy 0.0000000000
_vdw_energy -48.9006983339
_bond_energy 0.0000000000
_angle_energy 0.0000000000
_stretch_bend_coupling_energy 0.0000000000
_torsion_energy 0.0000000000
_inversion_energy 0.0000000000
_last_operation minimize_crystal_energy
_last_operation_comment none
_symmetry_cell_setting orthorhombic
_symmetry_space_group_name_H-M 'A e a 2'
_symmetry_Int_Tables_number 41
loop_
_symmetry_equiv_pos_site_id
_symmetry_equiv_pos_as_xyz
1 x,y,z
2 -x,-y,z
3 x+1/2,-y+1/2,z
4 -x+1/2,y+1/2,z
5 x,y+1/2,z+1/2
6 -x,-y+1/2,z+1/2
7 x+1/2,-y,z+1/2
8 -x+1/2,y,z+1/2
loop_
_atom_site_label
_atom_site_type_symbol
_atom_site_fract_x
_atom_site_fract_y
_atom_site_fract_z
_atom_site_fftype
_atom_site_charge
_atom_site_hybridization
C1_0 C -0.6207541665 0.1860031927 0.9789953882 C4 -0.2673638110 SP3
H1_0 H -0.6178268380 0.2550647110 1.2010519314 H 0.1423097670 UNKNOWN
H2_0 H -0.6391253703 0.2840855672 0.8002105596 H 0.1423097670 UNKNOWN
H3_0 H -0.5455770543 0.1283408911 0.9307204295 H 0.1423097670 UNKNOWN
O1_0 O -0.6962230740 0.0485935580 0.9933627433 O2 -0.5855322470 SP3
H4_0 H -0.7360852303 0.0478741395 0.7947544122 H 0.4259667570 UNKNOWN
#END
