#############################################
# Avant-garde Materials Simulation           
#############################################

data_g103
_cell_length_a 4.4529855126
_cell_length_b 12.1441612703
_cell_length_c 4.0117082146
_cell_angle_alpha 90.0000000000
_cell_angle_beta 90.0000000000
_cell_angle_gamma 90.0000000000
_cell_volume 216.9442509860
_exptl_crystal_density_diffrn 0.9810374074
_total_energy -2843.1562566912
_electrostatic_energy 0.0000000000
_vdw_energy -24.4536046807
_bond_energy 0.0000000000
_angle_energy 0.0000000000
_stretch_bend_coupling_energy 0.0000000000
_torsion_energy 0.0000000000
_inversion_energy 0.0000000000
_last_operation minimize_crystal_energy
_last_operation_comment none
_symmetry_cell_setting orthorhombic
_symmetry_space_group_name_H-M 'P 2_1 2_1 2'
_symmetry_Int_Tables_number 18
loop_
_symmetry_equiv_pos_site_id
_symmetry_equiv_pos_as_xyz
1 x,y,z
2 -x,-y,z
3 -x+1/2,y+1/2,-z
4 x+1/2,-y+1/2,-z
loop_
_atom_site_label
_atom_site_type_symbol
_atom_site_fract_x
_atom_site_fract_y
_atom_site_fract_z
_atom_site_fftype
_atom_site_charge
_atom_site_hybridization
C1_0 C 0.2504879710 0.3730792569 0.8147911248 C4 -0.2673638110 SP3
H1_0 H 0.4545103402 0.3823453869 0.9656056507 H 0.1423097670 UNKNOWN
H2_0 H 0.0535675189 0.3810859531 0.9788985005 H 0.1423097670 UNKNOWN
H3_0 H 0.2445229518 0.4386938685 0.6245739209 H 0.1423097670 UNKNOWN
O1_0 O 0.2591797690 0.2659459807 0.6664115172 O2 -0.5855322470 SP3
H4_0 H 0.0650706228 0.2541328404 0.5405246801 H 0.4259667570 UNKNOWN
#END
